 written on 12Jan2017 at 00:13:00 
          34
          71
    2    1    2    1    1    1    1    2    1    2    1    1    1    1    1
    1    1    1    1    1    1    1    1    1    1    1    2    1    2    1
    1    1    1    2    1    1    1    2    1    1    1    1    2    1    2
    1    1    1    1    1    1    1    1    1    1    1    1    1    1    1
    1    2    1    2    1    1    1    1    2    1    2
   -2   -2    0    1    1    0.000248   -0.000000
   -2   -2    0    2    1    0.000547   -0.000011
   -2   -2    0    3    1    0.000669    0.000126
   -2   -2    0    4    1    0.000188   -0.000053
   -2   -2    0    5    1   -0.001116    0.000067
   -2   -2    0    6    1   -0.001913   -0.000085
   -2   -2    0    7    1    0.000524    0.000113
   -2   -2    0    8    1    0.001536   -0.000175
   -2   -2    0    9    1   -0.000065    0.000057
   -2   -2    0   10    1   -0.000462    0.000013
   -2   -2    0   11    1    0.000944   -0.000050
   -2   -2    0   12    1   -0.000530   -0.000109
   -2   -2    0   13    1   -0.001100   -0.000068
   -2   -2    0   14    1    0.001507    0.000006
   -2   -2    0   15    1    0.000241    0.000061
   -2   -2    0   16    1   -0.000627    0.000041
   -2   -2    0   17    1   -0.002054   -0.000169
   -2   -2    0   18    1   -0.000281   -0.000247
   -2   -2    0   19    1   -0.000131   -0.000170
   -2   -2    0   20    1   -0.001280   -0.000004
   -2   -2    0   21    1   -0.001295   -0.000213
   -2   -2    0   22    1   -0.002950   -0.000233
   -2   -2    0   23    1    0.001958   -0.000774
   -2   -2    0   24    1    0.003164    0.000268
   -2   -2    0   25    1   -0.005995   -0.000456
   -2   -2    0   26    1    0.013663    0.000939
   -2   -2    0   27    1   -0.000408    0.000005
   -2   -2    0   28    1   -0.003274    0.000107
   -2   -2    0   29    1   -0.008289   -0.001309
   -2   -2    0   30    1    0.004312   -0.001562
   -2   -2    0   31    1    0.002806    0.000108
   -2   -2    0   32    1   -0.001732   -0.000083
   -2   -2    0   33    1   -0.005472   -0.000338
   -2   -2    0   34    1   -0.004540    0.000060
   -2   -2    0    1    2    0.000547    0.000011
   -2   -2    0    2    2   -0.000240    0.000000
   -2   -2    0    3    2   -0.001436   -0.000068
   -2   -2    0    4    2   -0.000037    0.000022
   -2   -2    0    5    2    0.001279   -0.000019
   -2   -2    0    6    2    0.000757    0.000073
   -2   -2    0    7    2    0.000294   -0.000066
   -2   -2    0    8    2   -0.001315    0.000108
   -2   -2    0    9    2    0.001548   -0.000036
   -2   -2    0   10    2    0.001822   -0.000012
   -2   -2    0   11    2   -0.001778    0.000088
   -2   -2    0   12    2   -0.001150    0.000089
   -2   -2    0   13    2   -0.000274    0.000050
   -2   -2    0   14    2   -0.000992    0.000000
   -2   -2    0   15    2   -0.001325   -0.000061
   -2   -2    0   16    2   -0.000465   -0.000036
   -2   -2    0   17    2   -0.001598    0.000085
   -2   -2    0   18    2    0.000242    0.000175
   -2   -2    0   19    2   -0.000858    0.000031
   -2   -2    0   20    2    0.001312    0.000055
   -2   -2    0   21    2    0.000036    0.000092
   -2   -2    0   22    2   -0.000365    0.000184
   -2   -2    0   23    2    0.000474    0.000403
   -2   -2    0   24    2   -0.004451   -0.000159
   -2   -2    0   25    2   -0.009743    0.000351
   -2   -2    0   26    2    0.014235   -0.001356
   -2   -2    0   27    2    0.002669   -0.000022
   -2   -2    0   28    2    0.000456    0.000002
   -2   -2    0   29    2    0.013113    0.000254
   -2   -2    0   30    2    0.005947    0.001070
   -2   -2    0   31    2   -0.001593   -0.000002
   -2   -2    0   32    2   -0.000008    0.000075
   -2   -2    0   33    2    0.000119    0.000190
   -2   -2    0   34    2    0.004199    0.000002
   -2   -2    0    1    3    0.000669   -0.000126
   -2   -2    0    2    3   -0.001436    0.000068
   -2   -2    0    3    3    0.001744   -0.000000
   -2   -2    0    4    3   -0.000596    0.000058
   -2   -2    0    5    3    0.000825   -0.000105
   -2   -2    0    6    3    0.003653   -0.000003
   -2   -2    0    7    3   -0.000085   -0.000006
   -2   -2    0    8    3    0.000965    0.000041
   -2   -2    0    9    3    0.000783    0.000068
   -2   -2    0   10    3    0.000019    0.000085
   -2   -2    0   11    3    0.000450   -0.000020
   -2   -2    0   12    3   -0.003589    0.000072
   -2   -2    0   13    3   -0.000690    0.000034
   -2   -2    0   14    3   -0.002798    0.000075
   -2   -2    0   15    3   -0.001671    0.000135
   -2   -2    0   16    3    0.000726    0.000011
   -2   -2    0   17    3   -0.000929   -0.000014
   -2   -2    0   18    3   -0.002283   -0.000015
   -2   -2    0   19    3   -0.002041   -0.000017
   -2   -2    0   20    3    0.000271   -0.000046
   -2   -2    0   21    3   -0.002265    0.000014
   -2   -2    0   22    3    0.001779    0.000105
   -2   -2    0   23    3    0.001256    0.000512
   -2   -2    0   24    3   -0.000924   -0.000205
   -2   -2    0   25    3    0.001784    0.000325
   -2   -2    0   26    3    0.000147   -0.000738
   -2   -2    0   27    3    0.000159   -0.000119
   -2   -2    0   28    3    0.001273   -0.000029
   -2   -2    0   29    3    0.006423    0.000302
   -2   -2    0   30    3    0.010441    0.001164
   -2   -2    0   31    3    0.011456   -0.000112
   -2   -2    0   32    3    0.004551   -0.000051
   -2   -2    0   33    3    0.002866    0.000286
   -2   -2    0   34    3    0.001076    0.000376
   -2   -2    0    1    4    0.000188    0.000053
   -2   -2    0    2    4   -0.000037   -0.000022
   -2   -2    0    3    4   -0.000596   -0.000058
   -2   -2    0    4    4    0.000401   -0.000000
   -2   -2    0    5    4   -0.000182    0.000084
   -2   -2    0    6    4   -0.000650    0.000051
   -2   -2    0    7    4   -0.000411    0.000026
   -2   -2    0    8    4    0.001133    0.000032
   -2   -2    0    9    4    0.000125   -0.000144
   -2   -2    0   10    4   -0.001998    0.000032
   -2   -2    0   11    4   -0.000314    0.000013
   -2   -2    0   12    4    0.000112    0.000079
   -2   -2    0   13    4   -0.000885    0.000050
   -2   -2    0   14    4   -0.000732   -0.000022
   -2   -2    0   15    4   -0.000314   -0.000109
   -2   -2    0   16    4   -0.001606    0.000026
   -2   -2    0   17    4    0.000115    0.000158
   -2   -2    0   18    4   -0.000501    0.000131
   -2   -2    0   19    4    0.000140    0.000082
   -2   -2    0   20    4    0.000635    0.000123
   -2   -2    0   21    4   -0.001126    0.000094
   -2   -2    0   22    4   -0.001039    0.000075
   -2   -2    0   23    4    0.001375   -0.000507
   -2   -2    0   24    4   -0.002477   -0.000147
   -2   -2    0   25    4   -0.002161    0.000242
   -2   -2    0   26    4    0.011762   -0.000897
   -2   -2    0   27    4   -0.000240    0.000179
   -2   -2    0   28    4    0.003183    0.000070
   -2   -2    0   29    4   -0.002066    0.000313
   -2   -2    0   30    4    0.027155   -0.001436
   -2   -2    0   31    4    0.003933   -0.000023
   -2   -2    0   32    4    0.002745    0.000060
   -2   -2    0   33    4   -0.002116   -0.000312
   -2   -2    0   34    4   -0.000850   -0.000021
   -2   -2    0    1    5   -0.001116   -0.000067
   -2   -2    0    2    5    0.001279    0.000019
   -2   -2    0    3    5    0.000825    0.000105
   -2   -2    0    4    5   -0.000182   -0.000084
   -2   -2    0    5    5    0.003343   -0.000000
   -2   -2    0    6    5    0.000083   -0.000108
   -2   -2    0    7    5    0.001437   -0.000004
   -2   -2    0    8    5   -0.002454   -0.000035
   -2   -2    0    9    5   -0.000857    0.000068
   -2   -2    0   10    5   -0.000449   -0.000029
   -2   -2    0   11    5    0.000356    0.000027
   -2   -2    0   12    5    0.000578   -0.000060
   -2   -2    0   13    5   -0.001236   -0.000096
   -2   -2    0   14    5   -0.000893   -0.000031
   -2   -2    0   15    5   -0.000300    0.000022
   -2   -2    0   16    5    0.000993    0.000041
   -2   -2    0   17    5    0.000086   -0.000222
   -2   -2    0   18    5   -0.002204   -0.000237
   -2   -2    0   19    5    0.001146   -0.000083
   -2   -2    0   20    5    0.000833   -0.000148
   -2   -2    0   21    5    0.000559   -0.000117
   -2   -2    0   22    5   -0.003434    0.000011
   -2   -2    0   23    5   -0.002924   -0.000270
   -2   -2    0   24    5   -0.000629    0.000260
   -2   -2    0   25    5    0.000595   -0.000366
   -2   -2    0   26    5    0.025140    0.000860
   -2   -2    0   27    5    0.002175   -0.000243
   -2   -2    0   28    5    0.000753    0.000097
   -2   -2    0   29    5    0.011755   -0.000627
   -2   -2    0   30    5   -0.000562    0.000098
   -2   -2    0   31    5   -0.006623    0.000037
   -2   -2    0   32    5    0.001656    0.000126
   -2   -2    0   33    5    0.000021    0.000205
   -2   -2    0   34    5   -0.003524    0.000004
   -2   -2    0    1    6   -0.001913    0.000085
   -2   -2    0    2    6    0.000757   -0.000073
   -2   -2    0    3    6    0.003653    0.000003
   -2   -2    0    4    6   -0.000650   -0.000051
   -2   -2    0    5    6    0.000083    0.000108
   -2   -2    0    6    6   -0.001664   -0.000000
   -2   -2    0    7    6   -0.001941    0.000059
   -2   -2    0    8    6   -0.001301    0.000008
   -2   -2    0    9    6   -0.002150   -0.000131
   -2   -2    0   10    6    0.000271   -0.000017
   -2   -2    0   11    6    0.000596   -0.000001
   -2   -2    0   12    6    0.003969   -0.000002
   -2   -2    0   13    6   -0.001453    0.000028
   -2   -2    0   14    6   -0.001192   -0.000058
   -2   -2    0   15    6   -0.001675   -0.000117
   -2   -2    0   16    6   -0.000179    0.000001
   -2   -2    0   17    6   -0.000997    0.000108
   -2   -2    0   18    6   -0.001660    0.000076
   -2   -2    0   19    6   -0.001418   -0.000014
   -2   -2    0   20    6    0.001635    0.000042
   -2   -2    0   21    6   -0.003149   -0.000010
   -2   -2    0   22    6    0.000378   -0.000104
   -2   -2    0   23    6    0.002791   -0.000885
   -2   -2    0   24    6   -0.004028    0.000160
   -2   -2    0   25    6    0.011908    0.000020
   -2   -2    0   26    6    0.004018   -0.000121
   -2   -2    0   27    6    0.000989    0.000108
   -2   -2    0   28    6   -0.001126   -0.000032
   -2   -2    0   29    6    0.000171   -0.000783
   -2   -2    0   30    6   -0.001048   -0.002148
   -2   -2    0   31    6    0.001703    0.000181
   -2   -2    0   32    6   -0.001131    0.000025
   -2   -2    0   33    6    0.003117   -0.000453
   -2   -2    0   34    6   -0.001681   -0.000211
   -2   -2    0    1    7    0.000524   -0.000113
   -2   -2    0    2    7    0.000294    0.000066
   -2   -2    0    3    7   -0.000085    0.000006
   -2   -2    0    4    7   -0.000411   -0.000026
   -2   -2    0    5    7    0.001437    0.000004
   -2   -2    0    6    7   -0.001941   -0.000059
   -2   -2    0    7    7    0.001156   -0.000000
   -2   -2    0    8    7    0.000238   -0.000023
   -2   -2    0    9    7   -0.000216    0.000025
   -2   -2    0   10    7    0.000541    0.000068
   -2   -2    0   11    7    0.000203    0.000016
   -2   -2    0   12    7   -0.001241    0.000071
   -2   -2    0   13    7   -0.000486   -0.000041
   -2   -2    0   14    7   -0.000871    0.000113
   -2   -2    0   15    7   -0.000417    0.000135
   -2   -2    0   16    7   -0.001642   -0.000002
   -2   -2    0   17    7   -0.000095   -0.000063
   -2   -2    0   18    7   -0.002476   -0.000136
   -2   -2    0   19    7   -0.000327   -0.000041
   -2   -2    0   20    7    0.001204   -0.000184
   -2   -2    0   21    7    0.000374   -0.000003
   -2   -2    0   22    7   -0.002578   -0.000230
   -2   -2    0   23    7   -0.000970   -0.000674
   -2   -2    0   24    7    0.001366   -0.000101
   -2   -2    0   25    7   -0.003630    0.000154
   -2   -2    0   26    7    0.019789   -0.000798
   -2   -2    0   27    7    0.000539   -0.000206
   -2   -2    0   28    7   -0.004993   -0.000024
   -2   -2    0   29    7   -0.007352    0.000211
   -2   -2    0   30    7   -0.007477   -0.000719
   -2   -2    0   31    7   -0.002149   -0.000016
   -2   -2    0   32    7   -0.001418   -0.000166
   -2   -2    0   33    7    0.000235   -0.000288
   -2   -2    0   34    7   -0.000319    0.000337
   -2   -2    0    1    8    0.001536    0.000175
   -2   -2    0    2    8   -0.001315   -0.000108
   -2   -2    0    3    8    0.000965   -0.000041
   -2   -2    0    4    8    0.001133   -0.000032
   -2   -2    0    5    8   -0.002454    0.000035
   -2   -2    0    6    8   -0.001301   -0.000008
   -2   -2    0    7    8    0.000238    0.000023
   -2   -2    0    8    8    0.000878   -0.000000
   -2   -2    0    9    8    0.000508   -0.000055
   -2   -2    0   10    8   -0.000516   -0.000016
   -2   -2    0   11    8   -0.000311   -0.000001
   -2   -2    0   12    8    0.000573   -0.000020
   -2   -2    0   13    8   -0.000006    0.000102
   -2   -2    0   14    8   -0.002982   -0.000027
   -2   -2    0   15    8   -0.000154   -0.000088
   -2   -2    0   16    8   -0.001113   -0.000036
   -2   -2    0   17    8   -0.001445    0.000143
   -2   -2    0   18    8   -0.000612    0.000298
   -2   -2    0   19    8   -0.001071    0.000092
   -2   -2    0   20    8    0.000120    0.000212
   -2   -2    0   21    8    0.000213    0.000064
   -2   -2    0   22    8    0.003135   -0.000067
   -2   -2    0   23    8   -0.001444   -0.000159
   -2   -2    0   24    8    0.003851    0.000106
   -2   -2    0   25    8    0.004468   -0.000193
   -2   -2    0   26    8   -0.009337    0.000415
   -2   -2    0   27    8    0.000618    0.000172
   -2   -2    0   28    8   -0.002227    0.000437
   -2   -2    0   29    8    0.002062   -0.000975
   -2   -2    0   30    8    0.015419    0.000042
   -2   -2    0   31    8    0.002327    0.000168
   -2   -2    0   32    8    0.002630    0.000125
   -2   -2    0   33    8    0.004101    0.000003
   -2   -2    0   34    8   -0.000252   -0.000166
   -2   -2    0    1    9   -0.000065   -0.000057
   -2   -2    0    2    9    0.001548    0.000036
   -2   -2    0    3    9    0.000783   -0.000068
   -2   -2    0    4    9    0.000125    0.000144
   -2   -2    0    5    9   -0.000857   -0.000068
   -2   -2    0    6    9   -0.002150    0.000131
   -2   -2    0    7    9   -0.000216   -0.000025
   -2   -2    0    8    9    0.000508    0.000055
   -2   -2    0    9    9    0.001853    0.000000
   -2   -2    0   10    9   -0.001455    0.000053
   -2   -2    0   11    9    0.000903    0.000021
   -2   -2    0   12    9    0.003503    0.000106
   -2   -2    0   13    9    0.000659    0.000065
   -2   -2    0   14    9   -0.001104    0.000019
   -2   -2    0   15    9   -0.000690   -0.000015
   -2   -2    0   16    9   -0.000586    0.000015
   -2   -2    0   17    9   -0.003160    0.000072
   -2   -2    0   18    9   -0.002367    0.000136
   -2   -2    0   19    9   -0.000225    0.000041
   -2   -2    0   20    9    0.001683   -0.000012
   -2   -2    0   21    9    0.000069    0.000068
   -2   -2    0   22    9    0.006641    0.000315
   -2   -2    0   23    9    0.005391    0.000082
   -2   -2    0   24    9   -0.003168   -0.000300
   -2   -2    0   25    9    0.010483    0.000779
   -2   -2    0   26    9    0.001421   -0.001284
   -2   -2    0   27    9    0.001279   -0.000058
   -2   -2    0   28    9   -0.003577   -0.000090
   -2   -2    0   29    9    0.001008    0.000466
   -2   -2    0   30    9   -0.005448    0.000228
   -2   -2    0   31    9    0.001271   -0.000059
   -2   -2    0   32    9    0.003862   -0.000112
   -2   -2    0   33    9   -0.000118    0.000209
   -2   -2    0   34    9   -0.000642    0.000216
   -2   -2    0    1   10   -0.000462   -0.000013
   -2   -2    0    2   10    0.001822    0.000012
   -2   -2    0    3   10    0.000019   -0.000085
   -2   -2    0    4   10   -0.001998   -0.000032
   -2   -2    0    5   10   -0.000449    0.000029
   -2   -2    0    6   10    0.000271    0.000017
   -2   -2    0    7   10    0.000541   -0.000068
   -2   -2    0    8   10   -0.000516    0.000016
   -2   -2    0    9   10   -0.001455   -0.000053
   -2   -2    0   10   10    0.001111   -0.000000
   -2   -2    0   11   10    0.000046   -0.000013
   -2   -2    0   12   10   -0.000417    0.000102
   -2   -2    0   13   10   -0.001945    0.000008
   -2   -2    0   14   10    0.001359   -0.000014
   -2   -2    0   15   10    0.000374   -0.000062
   -2   -2    0   16   10   -0.000833   -0.000040
   -2   -2    0   17   10    0.000770    0.000126
   -2   -2    0   18   10    0.001088    0.000154
   -2   -2    0   19   10    0.001316    0.000225
   -2   -2    0   20   10   -0.001101    0.000134
   -2   -2    0   21   10    0.000752    0.000236
   -2   -2    0   22   10   -0.000700    0.000120
   -2   -2    0   23   10   -0.004221   -0.000178
   -2   -2    0   24   10    0.001177   -0.000103
   -2   -2    0   25   10   -0.004039   -0.000019
   -2   -2    0   26   10   -0.001994   -0.000369
   -2   -2    0   27   10   -0.001850    0.000166
   -2   -2    0   28   10    0.004529    0.000227
   -2   -2    0   29   10   -0.000778    0.000191
   -2   -2    0   30   10   -0.004409   -0.001143
   -2   -2    0   31   10    0.000612   -0.000188
   -2   -2    0   32   10   -0.002893    0.000097
   -2   -2    0   33   10   -0.000039    0.000196
   -2   -2    0   34   10    0.001206    0.000283
   -2   -2    0    1   11    0.000944    0.000050
   -2   -2    0    2   11   -0.001778   -0.000088
   -2   -2    0    3   11    0.000450    0.000020
   -2   -2    0    4   11   -0.000314   -0.000013
   -2   -2    0    5   11    0.000356   -0.000027
   -2   -2    0    6   11    0.000596    0.000001
   -2   -2    0    7   11    0.000203   -0.000016
   -2   -2    0    8   11   -0.000311    0.000001
   -2   -2    0    9   11    0.000903   -0.000021
   -2   -2    0   10   11    0.000046    0.000013
   -2   -2    0   11   11    0.002138    0.000000
   -2   -2    0   12   11   -0.000123   -0.000012
   -2   -2    0   13   11    0.000184    0.000007
   -2   -2    0   14   11   -0.001076    0.000036
   -2   -2    0   15   11   -0.001268    0.000014
   -2   -2    0   16   11   -0.001017   -0.000028
   -2   -2    0   17   11   -0.001613   -0.000088
   -2   -2    0   18   11   -0.001387   -0.000022
   -2   -2    0   19   11   -0.003075   -0.000122
   -2   -2    0   20   11    0.000386   -0.000083
   -2   -2    0   21   11   -0.001650   -0.000117
   -2   -2    0   22   11    0.001236    0.000248
   -2   -2    0   23   11   -0.004333   -0.000012
   -2   -2    0   24   11    0.006947    0.000191
   -2   -2    0   25   11   -0.002059    0.000181
   -2   -2    0   26   11    0.009054   -0.000369
   -2   -2    0   27   11    0.000444   -0.000080
   -2   -2    0   28   11    0.000145   -0.000114
   -2   -2    0   29   11   -0.000560   -0.000423
   -2   -2    0   30   11    0.000751   -0.000566
   -2   -2    0   31   11    0.005176    0.000191
   -2   -2    0   32   11   -0.001142    0.000156
   -2   -2    0   33   11   -0.002757   -0.000006
   -2   -2    0   34   11    0.003587   -0.000210
   -2   -2    0    1   12   -0.000530    0.000109
   -2   -2    0    2   12   -0.001150   -0.000089
   -2   -2    0    3   12   -0.003589   -0.000072
   -2   -2    0    4   12    0.000112   -0.000079
   -2   -2    0    5   12    0.000578    0.000060
   -2   -2    0    6   12    0.003969    0.000002
   -2   -2    0    7   12   -0.001241   -0.000071
   -2   -2    0    8   12    0.000573    0.000020
   -2   -2    0    9   12    0.003503   -0.000106
   -2   -2    0   10   12   -0.000417   -0.000102
   -2   -2    0   11   12   -0.000123    0.000012
   -2   -2    0   12   12    0.001166    0.000000
   -2   -2    0   13   12    0.001353    0.000018
   -2   -2    0   14   12   -0.001334   -0.000159
   -2   -2    0   15   12   -0.003247   -0.000151
   -2   -2    0   16   12   -0.001903   -0.000067
   -2   -2    0   17   12    0.000245    0.000179
   -2   -2    0   18   12   -0.000851    0.000244
   -2   -2    0   19   12    0.000179    0.000151
   -2   -2    0   20   12    0.002400    0.000144
   -2   -2    0   21   12    0.000544    0.000131
   -2   -2    0   22   12   -0.003065   -0.000137
   -2   -2    0   23   12    0.003110   -0.000202
   -2   -2    0   24   12   -0.000792    0.000150
   -2   -2    0   25   12   -0.006921   -0.000093
   -2   -2    0   26   12    0.002238    0.000568
   -2   -2    0   27   12    0.003174    0.000056
   -2   -2    0   28   12   -0.000802    0.000178
   -2   -2    0   29   12    0.014291   -0.000362
   -2   -2    0   30   12    0.003007   -0.000072
   -2   -2    0   31   12   -0.002133   -0.000002
   -2   -2    0   32   12   -0.007951    0.000182
   -2   -2    0   33   12    0.004396   -0.000060
   -2   -2    0   34   12   -0.003422   -0.000240
   -2   -2    0    1   13   -0.001100    0.000068
   -2   -2    0    2   13   -0.000274   -0.000050
   -2   -2    0    3   13   -0.000690   -0.000034
   -2   -2    0    4   13   -0.000885   -0.000050
   -2   -2    0    5   13   -0.001236    0.000096
   -2   -2    0    6   13   -0.001453   -0.000028
   -2   -2    0    7   13   -0.000486    0.000041
   -2   -2    0    8   13   -0.000006   -0.000102
   -2   -2    0    9   13    0.000659   -0.000065
   -2   -2    0   10   13   -0.001945   -0.000008
   -2   -2    0   11   13    0.000184   -0.000007
   -2   -2    0   12   13    0.001353   -0.000018
   -2   -2    0   13   13    0.000532    0.000000
   -2   -2    0   14   13    0.000728   -0.000003
   -2   -2    0   15   13    0.000508   -0.000036
   -2   -2    0   16   13   -0.001812    0.000008
   -2   -2    0   17   13   -0.000487    0.000000
   -2   -2    0   18   13   -0.000306   -0.000047
   -2   -2    0   19   13    0.002193    0.000008
   -2   -2    0   20   13   -0.000229    0.000088
   -2   -2    0   21   13    0.000523    0.000005
   -2   -2    0   22   13   -0.000845   -0.000195
   -2   -2    0   23   13   -0.003142   -0.000705
   -2   -2    0   24   13   -0.004207    0.000054
   -2   -2    0   25   13   -0.003768   -0.000247
   -2   -2    0   26   13    0.013967    0.000017
   -2   -2    0   27   13   -0.000695    0.000175
   -2   -2    0   28   13   -0.000923    0.000165
   -2   -2    0   29   13   -0.003262   -0.000896
   -2   -2    0   30   13   -0.013818   -0.000745
   -2   -2    0   31   13    0.002172    0.000031
   -2   -2    0   32   13   -0.002474   -0.000017
   -2   -2    0   33   13    0.004430   -0.000308
   -2   -2    0   34   13   -0.000126   -0.000041
   -2   -2    0    1   14    0.001507   -0.000006
   -2   -2    0    2   14   -0.000992   -0.000000
   -2   -2    0    3   14   -0.002798   -0.000075
   -2   -2    0    4   14   -0.000732    0.000022
   -2   -2    0    5   14   -0.000893    0.000031
   -2   -2    0    6   14   -0.001192    0.000058
   -2   -2    0    7   14   -0.000871   -0.000113
   -2   -2    0    8   14   -0.002982    0.000027
   -2   -2    0    9   14   -0.001104   -0.000019
   -2   -2    0   10   14    0.001359    0.000014
   -2   -2    0   11   14   -0.001076   -0.000036
   -2   -2    0   12   14   -0.001334    0.000159
   -2   -2    0   13   14    0.000728    0.000003
   -2   -2    0   14   14   -0.000284    0.000000
   -2   -2    0   15   14   -0.002138   -0.000063
   -2   -2    0   16   14   -0.000946   -0.000014
   -2   -2    0   17   14   -0.000842    0.000083
   -2   -2    0   18   14   -0.002772    0.000177
   -2   -2    0   19   14   -0.002101    0.000154
   -2   -2    0   20   14    0.001795    0.000055
   -2   -2    0   21   14   -0.000263    0.000163
   -2   -2    0   22   14   -0.003231    0.000013
   -2   -2    0   23   14   -0.005616    0.000013
   -2   -2    0   24   14    0.000591   -0.000313
   -2   -2    0   25   14   -0.000981    0.000390
   -2   -2    0   26   14   -0.003111   -0.001590
   -2   -2    0   27   14    0.000475    0.000101
   -2   -2    0   28   14    0.006568   -0.000033
   -2   -2    0   29   14    0.005016   -0.000100
   -2   -2    0   30   14   -0.000123   -0.000273
   -2   -2    0   31   14   -0.000101   -0.000091
   -2   -2    0   32   14    0.001372   -0.000192
   -2   -2    0   33   14    0.001711    0.000020
   -2   -2    0   34   14    0.009373    0.000076
   -2   -2    0    1   15    0.000241   -0.000061
   -2   -2    0    2   15   -0.001325    0.000061
   -2   -2    0    3   15   -0.001671   -0.000135
   -2   -2    0    4   15   -0.000314    0.000109
   -2   -2    0    5   15   -0.000300   -0.000022
   -2   -2    0    6   15   -0.001675    0.000117
   -2   -2    0    7   15   -0.000417   -0.000135
   -2   -2    0    8   15   -0.000154    0.000088
   -2   -2    0    9   15   -0.000690    0.000015
   -2   -2    0   10   15    0.000374    0.000062
   -2   -2    0   11   15   -0.001268   -0.000014
   -2   -2    0   12   15   -0.003247    0.000151
   -2   -2    0   13   15    0.000508    0.000036
   -2   -2    0   14   15   -0.002138    0.000063
   -2   -2    0   15   15    0.000131   -0.000000
   -2   -2    0   16   15    0.000287    0.000010
   -2   -2    0   17   15   -0.002595    0.000042
   -2   -2    0   18   15   -0.003911    0.000120
   -2   -2    0   19   15   -0.001525    0.000144
   -2   -2    0   20   15    0.001732    0.000011
   -2   -2    0   21   15   -0.001855    0.000164
   -2   -2    0   22   15    0.009405    0.000140
   -2   -2    0   23   15    0.000130    0.000240
   -2   -2    0   24   15   -0.004408   -0.000470
   -2   -2    0   25   15    0.010421    0.001056
   -2   -2    0   26   15   -0.011040   -0.002553
   -2   -2    0   27   15   -0.000341    0.000083
   -2   -2    0   28   15   -0.000367   -0.000177
   -2   -2    0   29   15   -0.002340    0.000850
   -2   -2    0   30   15    0.003961    0.000516
   -2   -2    0   31   15    0.004410   -0.000147
   -2   -2    0   32   15    0.006945   -0.000257
   -2   -2    0   33   15   -0.005673    0.000237
   -2   -2    0   34   15    0.012068    0.000408
   -2   -2    0    1   16   -0.000627   -0.000041
   -2   -2    0    2   16   -0.000465    0.000036
   -2   -2    0    3   16    0.000726   -0.000011
   -2   -2    0    4   16   -0.001606   -0.000026
   -2   -2    0    5   16    0.000993   -0.000041
   -2   -2    0    6   16   -0.000179   -0.000001
   -2   -2    0    7   16   -0.001642    0.000002
   -2   -2    0    8   16   -0.001113    0.000036
   -2   -2    0    9   16   -0.000586   -0.000015
   -2   -2    0   10   16   -0.000833    0.000040
   -2   -2    0   11   16   -0.001017    0.000028
   -2   -2    0   12   16   -0.001903    0.000067
   -2   -2    0   13   16   -0.001812   -0.000008
   -2   -2    0   14   16   -0.000946    0.000014
   -2   -2    0   15   16    0.000287   -0.000010
   -2   -2    0   16   16    0.000282    0.000000
   -2   -2    0   17   16   -0.000170    0.000003
   -2   -2    0   18   16   -0.000819   -0.000008
   -2   -2    0   19   16    0.001278   -0.000031
   -2   -2    0   20   16    0.002604   -0.000069
   -2   -2    0   21   16   -0.000419   -0.000003
   -2   -2    0   22   16   -0.003160    0.000057
   -2   -2    0   23   16    0.001178   -0.000196
   -2   -2    0   24   16    0.000460   -0.000115
   -2   -2    0   25   16   -0.002424    0.000346
   -2   -2    0   26   16   -0.000952   -0.000959
   -2   -2    0   27   16    0.000848   -0.000111
   -2   -2    0   28   16    0.005346   -0.000005
   -2   -2    0   29   16   -0.003828    0.000286
   -2   -2    0   30   16    0.026651   -0.000857
   -2   -2    0   31   16   -0.000561   -0.000030
   -2   -2    0   32   16   -0.000423   -0.000073
   -2   -2    0   33   16    0.000451    0.000050
   -2   -2    0   34   16   -0.003643    0.000145
   -2   -2    0    1   17   -0.002054    0.000169
   -2   -2    0    2   17   -0.001598   -0.000085
   -2   -2    0    3   17   -0.000929    0.000014
   -2   -2    0    4   17    0.000115   -0.000158
   -2   -2    0    5   17    0.000086    0.000222
   -2   -2    0    6   17   -0.000997   -0.000108
   -2   -2    0    7   17   -0.000095    0.000063
   -2   -2    0    8   17   -0.001445   -0.000143
   -2   -2    0    9   17   -0.003160   -0.000072
   -2   -2    0   10   17    0.000770   -0.000126
   -2   -2    0   11   17   -0.001613    0.000088
   -2   -2    0   12   17    0.000245   -0.000179
   -2   -2    0   13   17   -0.000487   -0.000000
   -2   -2    0   14   17   -0.000842   -0.000083
   -2   -2    0   15   17   -0.002595   -0.000042
   -2   -2    0   16   17   -0.000170   -0.000003
   -2   -2    0   17   17    0.001566   -0.000000
   -2   -2    0   18   17   -0.001533   -0.000022
   -2   -2    0   19   17    0.001899   -0.000029
   -2   -2    0   20   17    0.000299    0.000180
   -2   -2    0   21   17   -0.000047   -0.000054
   -2   -2    0   22   17   -0.003095   -0.000181
   -2   -2    0   23   17    0.007855   -0.002095
   -2   -2    0   24   17   -0.010934    0.000660
   -2   -2    0   25   17    0.002089   -0.000421
   -2   -2    0   26   17   -0.000706    0.000889
   -2   -2    0   27   17    0.001373    0.000155
   -2   -2    0   28   17   -0.002256    0.000607
   -2   -2    0   29   17    0.009191   -0.001847
   -2   -2    0   30   17   -0.003611   -0.002907
   -2   -2    0   31   17   -0.001181    0.000373
   -2   -2    0   32   17    0.001611    0.000297
   -2   -2    0   33   17    0.000507   -0.000689
   -2   -2    0   34   17    0.001869   -0.000308
   -2   -2    0    1   18   -0.000281    0.000247
   -2   -2    0    2   18    0.000242   -0.000175
   -2   -2    0    3   18   -0.002283    0.000015
   -2   -2    0    4   18   -0.000501   -0.000131
   -2   -2    0    5   18   -0.002204    0.000237
   -2   -2    0    6   18   -0.001660   -0.000076
   -2   -2    0    7   18   -0.002476    0.000136
   -2   -2    0    8   18   -0.000612   -0.000298
   -2   -2    0    9   18   -0.002367   -0.000136
   -2   -2    0   10   18    0.001088   -0.000154
   -2   -2    0   11   18   -0.001387    0.000022
   -2   -2    0   12   18   -0.000851   -0.000244
   -2   -2    0   13   18   -0.000306    0.000047
   -2   -2    0   14   18   -0.002772   -0.000177
   -2   -2    0   15   18   -0.003911   -0.000120
   -2   -2    0   16   18   -0.000819    0.000008
   -2   -2    0   17   18   -0.001533    0.000022
   -2   -2    0   18   18   -0.000512    0.000000
   -2   -2    0   19   18    0.003201   -0.000020
   -2   -2    0   20   18    0.002545    0.000337
   -2   -2    0   21   18    0.000433   -0.000057
   -2   -2    0   22   18   -0.001837   -0.000441
   -2   -2    0   23   18    0.004138   -0.002156
   -2   -2    0   24   18   -0.020747    0.000689
   -2   -2    0   25   18    0.003545   -0.000706
   -2   -2    0   26   18    0.003625    0.001811
   -2   -2    0   27   18    0.000932    0.000370
   -2   -2    0   28   18    0.006670    0.000593
   -2   -2    0   29   18    0.017883   -0.002347
   -2   -2    0   30   18    0.006267   -0.002917
   -2   -2    0   31   18   -0.003457    0.000474
   -2   -2    0   32   18    0.001227    0.000182
   -2   -2    0   33   18    0.002556   -0.000948
   -2   -2    0   34   18    0.003737   -0.000517
   -2   -2    0    1   19   -0.000131    0.000170
   -2   -2    0    2   19   -0.000858   -0.000031
   -2   -2    0    3   19   -0.002041    0.000017
   -2   -2    0    4   19    0.000140   -0.000082
   -2   -2    0    5   19    0.001146    0.000083
   -2   -2    0    6   19   -0.001418    0.000014
   -2   -2    0    7   19   -0.000327    0.000041
   -2   -2    0    8   19   -0.001071   -0.000092
   -2   -2    0    9   19   -0.000225   -0.000041
   -2   -2    0   10   19    0.001316   -0.000225
   -2   -2    0   11   19   -0.003075    0.000122
   -2   -2    0   12   19    0.000179   -0.000151
   -2   -2    0   13   19    0.002193   -0.000008
   -2   -2    0   14   19   -0.002101   -0.000154
   -2   -2    0   15   19   -0.001525   -0.000144
   -2   -2    0   16   19    0.001278    0.000031
   -2   -2    0   17   19    0.001899    0.000029
   -2   -2    0   18   19    0.003201    0.000020
   -2   -2    0   19   19    0.000680    0.000000
   -2   -2    0   20   19    0.000952    0.000164
   -2   -2    0   21   19    0.001454   -0.000003
   -2   -2    0   22   19   -0.005515   -0.000215
   -2   -2    0   23   19    0.005622   -0.000811
   -2   -2    0   24   19   -0.004066    0.000325
   -2   -2    0   25   19   -0.003123   -0.000595
   -2   -2    0   26   19    0.000933    0.001571
   -2   -2    0   27   19    0.001974    0.000105
   -2   -2    0   28   19    0.001714    0.000334
   -2   -2    0   29   19    0.011587   -0.001153
   -2   -2    0   30   19    0.005564   -0.001109
   -2   -2    0   31   19   -0.008172    0.000205
   -2   -2    0   32   19   -0.001218    0.000194
   -2   -2    0   33   19    0.001291   -0.000427
   -2   -2    0   34   19    0.001667   -0.000371
   -2   -2    0    1   20   -0.001280    0.000004
   -2   -2    0    2   20    0.001312   -0.000055
   -2   -2    0    3   20    0.000271    0.000046
   -2   -2    0    4   20    0.000635   -0.000123
   -2   -2    0    5   20    0.000833    0.000148
   -2   -2    0    6   20    0.001635   -0.000042
   -2   -2    0    7   20    0.001204    0.000184
   -2   -2    0    8   20    0.000120   -0.000212
   -2   -2    0    9   20    0.001683    0.000012
   -2   -2    0   10   20   -0.001101   -0.000134
   -2   -2    0   11   20    0.000386    0.000083
   -2   -2    0   12   20    0.002400   -0.000144
   -2   -2    0   13   20   -0.000229   -0.000088
   -2   -2    0   14   20    0.001795   -0.000055
   -2   -2    0   15   20    0.001732   -0.000011
   -2   -2    0   16   20    0.002604    0.000069
   -2   -2    0   17   20    0.000299   -0.000180
   -2   -2    0   18   20    0.002545   -0.000337
   -2   -2    0   19   20    0.000952   -0.000164
   -2   -2    0   20   20   -0.001207   -0.000000
   -2   -2    0   21   20    0.000543   -0.000171
   -2   -2    0   22   20    0.001484   -0.000132
   -2   -2    0   23   20    0.006437   -0.001377
   -2   -2    0   24   20    0.000139    0.000429
   -2   -2    0   25   20    0.000735   -0.000515
   -2   -2    0   26   20    0.000817    0.001291
   -2   -2    0   27   20    0.000718   -0.000004
   -2   -2    0   28   20   -0.003761    0.000417
   -2   -2    0   29   20    0.005377   -0.001171
   -2   -2    0   30   20    0.003790   -0.000870
   -2   -2    0   31   20   -0.000291    0.000244
   -2   -2    0   32   20    0.001803    0.000156
   -2   -2    0   33   20   -0.005666   -0.000450
   -2   -2    0   34   20   -0.000692   -0.000240
   -2   -2    0    1   21   -0.001295    0.000213
   -2   -2    0    2   21    0.000036   -0.000092
   -2   -2    0    3   21   -0.002265   -0.000014
   -2   -2    0    4   21   -0.001126   -0.000094
   -2   -2    0    5   21    0.000559    0.000117
   -2   -2    0    6   21   -0.003149    0.000010
   -2   -2    0    7   21    0.000374    0.000003
   -2   -2    0    8   21    0.000213   -0.000064
   -2   -2    0    9   21    0.000069   -0.000068
   -2   -2    0   10   21    0.000752   -0.000236
   -2   -2    0   11   21   -0.001650    0.000117
   -2   -2    0   12   21    0.000544   -0.000131
   -2   -2    0   13   21    0.000523   -0.000005
   -2   -2    0   14   21   -0.000263   -0.000163
   -2   -2    0   15   21   -0.001855   -0.000164
   -2   -2    0   16   21   -0.000419    0.000003
   -2   -2    0   17   21   -0.000047    0.000054
   -2   -2    0   18   21    0.000433    0.000057
   -2   -2    0   19   21    0.001454    0.000003
   -2   -2    0   20   21    0.000543    0.000171
   -2   -2    0   21   21    0.000188    0.000000
   -2   -2    0   22   21   -0.003196   -0.000208
   -2   -2    0   23   21    0.003213   -0.000814
   -2   -2    0   24   21   -0.004944    0.000365
   -2   -2    0   25   21   -0.005197   -0.000565
   -2   -2    0   26   21    0.010101    0.001242
   -2   -2    0   27   21    0.001040    0.000172
   -2   -2    0   28   21   -0.001626    0.000287
   -2   -2    0   29   21    0.001096   -0.001116
   -2   -2    0   30   21   -0.003333   -0.001106
   -2   -2    0   31   21   -0.003921    0.000204
   -2   -2    0   32   21   -0.004067    0.000178
   -2   -2    0   33   21   -0.002513   -0.000384
   -2   -2    0   34   21   -0.002031   -0.000544
   -2   -2    0    1   22   -0.002950    0.000233
   -2   -2    0    2   22   -0.000365   -0.000184
   -2   -2    0    3   22    0.001779   -0.000105
   -2   -2    0    4   22   -0.001039   -0.000075
   -2   -2    0    5   22   -0.003434   -0.000011
   -2   -2    0    6   22    0.000378    0.000104
   -2   -2    0    7   22   -0.002578    0.000230
   -2   -2    0    8   22    0.003135    0.000067
   -2   -2    0    9   22    0.006641   -0.000315
   -2   -2    0   10   22   -0.000700   -0.000120
   -2   -2    0   11   22    0.001236   -0.000248
   -2   -2    0   12   22   -0.003065    0.000137
   -2   -2    0   13   22   -0.000845    0.000195
   -2   -2    0   14   22   -0.003231   -0.000013
   -2   -2    0   15   22    0.009405   -0.000140
   -2   -2    0   16   22   -0.003160   -0.000057
   -2   -2    0   17   22   -0.003095    0.000181
   -2   -2    0   18   22   -0.001837    0.000441
   -2   -2    0   19   22   -0.005515    0.000215
   -2   -2    0   20   22    0.001484    0.000132
   -2   -2    0   21   22   -0.003196    0.000208
   -2   -2    0   22   22   -0.008679    0.000000
   -2   -2    0   23   22    0.000216   -0.000192
   -2   -2    0   24   22    0.008072   -0.000192
   -2   -2    0   25   22   -0.000515   -0.000054
   -2   -2    0   26   22    0.003272    0.000947
   -2   -2    0   27   22   -0.002475    0.000310
   -2   -2    0   28   22    0.012191   -0.000034
   -2   -2    0   29   22    0.016673   -0.000128
   -2   -2    0   30   22    0.033479   -0.001028
   -2   -2    0   31   22    0.007042   -0.000251
   -2   -2    0   32   22    0.005633    0.000132
   -2   -2    0   33   22   -0.002650   -0.000431
   -2   -2    0   34   22    0.001952   -0.000148
   -2   -2    0    1   23    0.001958    0.000774
   -2   -2    0    2   23    0.000474   -0.000403
   -2   -2    0    3   23    0.001256   -0.000512
   -2   -2    0    4   23    0.001375    0.000507
   -2   -2    0    5   23   -0.002924    0.000270
   -2   -2    0    6   23    0.002791    0.000885
   -2   -2    0    7   23   -0.000970    0.000674
   -2   -2    0    8   23   -0.001444    0.000159
   -2   -2    0    9   23    0.005391   -0.000082
   -2   -2    0   10   23   -0.004221    0.000178
   -2   -2    0   11   23   -0.004333    0.000012
   -2   -2    0   12   23    0.003110    0.000202
   -2   -2    0   13   23   -0.003142    0.000705
   -2   -2    0   14   23   -0.005616   -0.000013
   -2   -2    0   15   23    0.000130   -0.000240
   -2   -2    0   16   23    0.001178    0.000196
   -2   -2    0   17   23    0.007855    0.002095
   -2   -2    0   18   23    0.004138    0.002156
   -2   -2    0   19   23    0.005622    0.000811
   -2   -2    0   20   23    0.006437    0.001377
   -2   -2    0   21   23    0.003213    0.000814
   -2   -2    0   22   23    0.000216    0.000192
   -2   -2    0   23   23   -0.000796    0.000000
   -2   -2    0   24   23   -0.004276   -0.000780
   -2   -2    0   25   23   -0.008599   -0.000291
   -2   -2    0   26   23    0.020167    0.002818
   -2   -2    0   27   23    0.003989    0.001038
   -2   -2    0   28   23   -0.011993    0.000233
   -2   -2    0   29   23    0.002416    0.000344
   -2   -2    0   30   23    0.007592   -0.001483
   -2   -2    0   31   23    0.000073   -0.000368
   -2   -2    0   32   23    0.004382    0.000347
   -2   -2    0   33   23    0.006606   -0.000571
   -2   -2    0   34   23   -0.009832   -0.000685
   -2   -2    0    1   24    0.003164   -0.000268
   -2   -2    0    2   24   -0.004451    0.000159
   -2   -2    0    3   24   -0.000924    0.000205
   -2   -2    0    4   24   -0.002477    0.000147
   -2   -2    0    5   24   -0.000629   -0.000260
   -2   -2    0    6   24   -0.004028   -0.000160
   -2   -2    0    7   24    0.001366    0.000101
   -2   -2    0    8   24    0.003851   -0.000106
   -2   -2    0    9   24   -0.003168    0.000300
   -2   -2    0   10   24    0.001177    0.000103
   -2   -2    0   11   24    0.006947   -0.000191
   -2   -2    0   12   24   -0.000792   -0.000150
   -2   -2    0   13   24   -0.004207   -0.000054
   -2   -2    0   14   24    0.000591    0.000313
   -2   -2    0   15   24   -0.004408    0.000470
   -2   -2    0   16   24    0.000460    0.000115
   -2   -2    0   17   24   -0.010934   -0.000660
   -2   -2    0   18   24   -0.020747   -0.000689
   -2   -2    0   19   24   -0.004066   -0.000325
   -2   -2    0   20   24    0.000139   -0.000429
   -2   -2    0   21   24   -0.004944   -0.000365
   -2   -2    0   22   24    0.008072    0.000192
   -2   -2    0   23   24   -0.004276    0.000780
   -2   -2    0   24   24   -0.001979    0.000000
   -2   -2    0   25   24    0.019031    0.000626
   -2   -2    0   26   24    0.008683   -0.000923
   -2   -2    0   27   24   -0.003700   -0.000432
   -2   -2    0   28   24   -0.003357   -0.000132
   -2   -2    0   29   24    0.001469    0.001161
   -2   -2    0   30   24   -0.002633    0.002126
   -2   -2    0   31   24   -0.007559   -0.000015
   -2   -2    0   32   24   -0.000736   -0.000152
   -2   -2    0   33   24   -0.002040    0.000541
   -2   -2    0   34   24   -0.005385    0.000850
   -2   -2    0    1   25   -0.005995    0.000456
   -2   -2    0    2   25   -0.009743   -0.000351
   -2   -2    0    3   25    0.001784   -0.000325
   -2   -2    0    4   25   -0.002161   -0.000242
   -2   -2    0    5   25    0.000595    0.000366
   -2   -2    0    6   25    0.011908   -0.000020
   -2   -2    0    7   25   -0.003630   -0.000154
   -2   -2    0    8   25    0.004468    0.000193
   -2   -2    0    9   25    0.010483   -0.000779
   -2   -2    0   10   25   -0.004039    0.000019
   -2   -2    0   11   25   -0.002059   -0.000181
   -2   -2    0   12   25   -0.006921    0.000093
   -2   -2    0   13   25   -0.003768    0.000247
   -2   -2    0   14   25   -0.000981   -0.000390
   -2   -2    0   15   25    0.010421   -0.001056
   -2   -2    0   16   25   -0.002424   -0.000346
   -2   -2    0   17   25    0.002089    0.000421
   -2   -2    0   18   25    0.003545    0.000706
   -2   -2    0   19   25   -0.003123    0.000595
   -2   -2    0   20   25    0.000735    0.000515
   -2   -2    0   21   25   -0.005197    0.000565
   -2   -2    0   22   25   -0.000515    0.000054
   -2   -2    0   23   25   -0.008599    0.000291
   -2   -2    0   24   25    0.019031   -0.000626
   -2   -2    0   25   25   -0.009210   -0.000000
   -2   -2    0   26   25   -0.006423    0.001065
   -2   -2    0   27   25   -0.003411    0.000898
   -2   -2    0   28   25   -0.010140   -0.000169
   -2   -2    0   29   25    0.005641    0.000608
   -2   -2    0   30   25   -0.056814   -0.002176
   -2   -2    0   31   25    0.004978   -0.000604
   -2   -2    0   32   25   -0.009308   -0.000002
   -2   -2    0   33   25    0.004073   -0.000001
   -2   -2    0   34   25   -0.002811   -0.000351
   -2   -2    0    1   26    0.013663   -0.000939
   -2   -2    0    2   26    0.014235    0.001356
   -2   -2    0    3   26    0.000147    0.000738
   -2   -2    0    4   26    0.011762    0.000897
   -2   -2    0    5   26    0.025140   -0.000860
   -2   -2    0    6   26    0.004018    0.000121
   -2   -2    0    7   26    0.019789    0.000798
   -2   -2    0    8   26   -0.009337   -0.000415
   -2   -2    0    9   26    0.001421    0.001284
   -2   -2    0   10   26   -0.001994    0.000369
   -2   -2    0   11   26    0.009054    0.000369
   -2   -2    0   12   26    0.002238   -0.000568
   -2   -2    0   13   26    0.013967   -0.000017
   -2   -2    0   14   26   -0.003111    0.001590
   -2   -2    0   15   26   -0.011040    0.002553
   -2   -2    0   16   26   -0.000952    0.000959
   -2   -2    0   17   26   -0.000706   -0.000889
   -2   -2    0   18   26    0.003625   -0.001811
   -2   -2    0   19   26    0.000933   -0.001571
   -2   -2    0   20   26    0.000817   -0.001291
   -2   -2    0   21   26    0.010101   -0.001242
   -2   -2    0   22   26    0.003272   -0.000947
   -2   -2    0   23   26    0.020167   -0.002818
   -2   -2    0   24   26    0.008683    0.000923
   -2   -2    0   25   26   -0.006423   -0.001065
   -2   -2    0   26   26   -0.045208    0.000000
   -2   -2    0   27   26    0.008724   -0.002024
   -2   -2    0   28   26    0.008720    0.000014
   -2   -2    0   29   26   -0.018054   -0.001940
   -2   -2    0   30   26    0.018600   -0.000586
   -2   -2    0   31   26    0.024684    0.001374
   -2   -2    0   32   26    0.022299   -0.001309
   -2   -2    0   33   26   -0.011369   -0.001714
   -2   -2    0   34   26   -0.012579    0.001283
   -2   -2    0    1   27   -0.000408   -0.000005
   -2   -2    0    2   27    0.002669    0.000022
   -2   -2    0    3   27    0.000159    0.000119
   -2   -2    0    4   27   -0.000240   -0.000179
   -2   -2    0    5   27    0.002175    0.000243
   -2   -2    0    6   27    0.000989   -0.000108
   -2   -2    0    7   27    0.000539    0.000206
   -2   -2    0    8   27    0.000618   -0.000172
   -2   -2    0    9   27    0.001279    0.000058
   -2   -2    0   10   27   -0.001850   -0.000166
   -2   -2    0   11   27    0.000444    0.000080
   -2   -2    0   12   27    0.003174   -0.000056
   -2   -2    0   13   27   -0.000695   -0.000175
   -2   -2    0   14   27    0.000475   -0.000101
   -2   -2    0   15   27   -0.000341   -0.000083
   -2   -2    0   16   27    0.000848    0.000111
   -2   -2    0   17   27    0.001373   -0.000155
   -2   -2    0   18   27    0.000932   -0.000370
   -2   -2    0   19   27    0.001974   -0.000105
   -2   -2    0   20   27    0.000718    0.000004
   -2   -2    0   21   27    0.001040   -0.000172
   -2   -2    0   22   27   -0.002475   -0.000310
   -2   -2    0   23   27    0.003989   -0.001038
   -2   -2    0   24   27   -0.003700    0.000432
   -2   -2    0   25   27   -0.003411   -0.000898
   -2   -2    0   26   27    0.008724    0.002024
   -2   -2    0   27   27    0.000440    0.000000
   -2   -2    0   28   27    0.002404    0.000439
   -2   -2    0   29   27    0.005510   -0.001362
   -2   -2    0   30   27    0.020467   -0.000377
   -2   -2    0   31   27   -0.001799    0.000263
   -2   -2    0   32   27    0.001408    0.000247
   -2   -2    0   33   27   -0.003354   -0.000614
   -2   -2    0   34   27   -0.004582   -0.000466
   -2   -2    0    1   28   -0.003274   -0.000107
   -2   -2    0    2   28    0.000456   -0.000002
   -2   -2    0    3   28    0.001273    0.000029
   -2   -2    0    4   28    0.003183   -0.000070
   -2   -2    0    5   28    0.000753   -0.000097
   -2   -2    0    6   28   -0.001126    0.000032
   -2   -2    0    7   28   -0.004993    0.000024
   -2   -2    0    8   28   -0.002227   -0.000437
   -2   -2    0    9   28   -0.003577    0.000090
   -2   -2    0   10   28    0.004529   -0.000227
   -2   -2    0   11   28    0.000145    0.000114
   -2   -2    0   12   28   -0.000802   -0.000178
   -2   -2    0   13   28   -0.000923   -0.000165
   -2   -2    0   14   28    0.006568    0.000033
   -2   -2    0   15   28   -0.000367    0.000177
   -2   -2    0   16   28    0.005346    0.000005
   -2   -2    0   17   28   -0.002256   -0.000607
   -2   -2    0   18   28    0.006670   -0.000593
   -2   -2    0   19   28    0.001714   -0.000334
   -2   -2    0   20   28   -0.003761   -0.000417
   -2   -2    0   21   28   -0.001626   -0.000287
   -2   -2    0   22   28    0.012191    0.000034
   -2   -2    0   23   28   -0.011993   -0.000233
   -2   -2    0   24   28   -0.003357    0.000132
   -2   -2    0   25   28   -0.010140    0.000169
   -2   -2    0   26   28    0.008720   -0.000014
   -2   -2    0   27   28    0.002404   -0.000439
   -2   -2    0   28   28    0.006619   -0.000000
   -2   -2    0   29   28    0.004520   -0.000165
   -2   -2    0   30   28   -0.018677    0.000040
   -2   -2    0   31   28   -0.002210    0.000101
   -2   -2    0   32   28   -0.000537   -0.000172
   -2   -2    0   33   28    0.003080   -0.000328
   -2   -2    0   34   28    0.013224    0.000165
   -2   -2    0    1   29   -0.008289    0.001309
   -2   -2    0    2   29    0.013113   -0.000254
   -2   -2    0    3   29    0.006423   -0.000302
   -2   -2    0    4   29   -0.002066   -0.000313
   -2   -2    0    5   29    0.011755    0.000627
   -2   -2    0    6   29    0.000171    0.000783
   -2   -2    0    7   29   -0.007352   -0.000211
   -2   -2    0    8   29    0.002062    0.000975
   -2   -2    0    9   29    0.001008   -0.000466
   -2   -2    0   10   29   -0.000778   -0.000191
   -2   -2    0   11   29   -0.000560    0.000423
   -2   -2    0   12   29    0.014291    0.000362
   -2   -2    0   13   29   -0.003262    0.000896
   -2   -2    0   14   29    0.005016    0.000100
   -2   -2    0   15   29   -0.002340   -0.000850
   -2   -2    0   16   29   -0.003828   -0.000286
   -2   -2    0   17   29    0.009191    0.001847
   -2   -2    0   18   29    0.017883    0.002347
   -2   -2    0   19   29    0.011587    0.001153
   -2   -2    0   20   29    0.005377    0.001171
   -2   -2    0   21   29    0.001096    0.001116
   -2   -2    0   22   29    0.016673    0.000128
   -2   -2    0   23   29    0.002416   -0.000344
   -2   -2    0   24   29    0.001469   -0.001161
   -2   -2    0   25   29    0.005641   -0.000608
   -2   -2    0   26   29   -0.018054    0.001940
   -2   -2    0   27   29    0.005510    0.001362
   -2   -2    0   28   29    0.004520    0.000165
   -2   -2    0   29   29    0.011371   -0.000000
   -2   -2    0   30   29    0.011138   -0.002857
   -2   -2    0   31   29   -0.006722   -0.000097
   -2   -2    0   32   29    0.006018    0.000512
   -2   -2    0   33   29   -0.011216   -0.000380
   -2   -2    0   34   29   -0.007082   -0.001256
   -2   -2    0    1   30    0.004312    0.001562
   -2   -2    0    2   30    0.005947   -0.001070
   -2   -2    0    3   30    0.010441   -0.001164
   -2   -2    0    4   30    0.027155    0.001436
   -2   -2    0    5   30   -0.000562   -0.000098
   -2   -2    0    6   30   -0.001048    0.002148
   -2   -2    0    7   30   -0.007477    0.000719
   -2   -2    0    8   30    0.015419   -0.000042
   -2   -2    0    9   30   -0.005448   -0.000228
   -2   -2    0   10   30   -0.004409    0.001143
   -2   -2    0   11   30    0.000751    0.000566
   -2   -2    0   12   30    0.003007    0.000072
   -2   -2    0   13   30   -0.013818    0.000745
   -2   -2    0   14   30   -0.000123    0.000273
   -2   -2    0   15   30    0.003961   -0.000516
   -2   -2    0   16   30    0.026651    0.000857
   -2   -2    0   17   30   -0.003611    0.002907
   -2   -2    0   18   30    0.006267    0.002917
   -2   -2    0   19   30    0.005564    0.001109
   -2   -2    0   20   30    0.003790    0.000870
   -2   -2    0   21   30   -0.003333    0.001106
   -2   -2    0   22   30    0.033479    0.001028
   -2   -2    0   23   30    0.007592    0.001483
   -2   -2    0   24   30   -0.002633   -0.002126
   -2   -2    0   25   30   -0.056814    0.002176
   -2   -2    0   26   30    0.018600    0.000586
   -2   -2    0   27   30    0.020467    0.000377
   -2   -2    0   28   30   -0.018677   -0.000040
   -2   -2    0   29   30    0.011138    0.002857
   -2   -2    0   30   30    0.010915    0.000000
   -2   -2    0   31   30    0.006428   -0.000147
   -2   -2    0   32   30    0.018643   -0.000648
   -2   -2    0   33   30   -0.036796   -0.000627
   -2   -2    0   34   30   -0.009773   -0.000510
   -2   -2    0    1   31    0.002806   -0.000108
   -2   -2    0    2   31   -0.001593    0.000002
   -2   -2    0    3   31    0.011456    0.000112
   -2   -2    0    4   31    0.003933    0.000023
   -2   -2    0    5   31   -0.006623   -0.000037
   -2   -2    0    6   31    0.001703   -0.000181
   -2   -2    0    7   31   -0.002149    0.000016
   -2   -2    0    8   31    0.002327   -0.000168
   -2   -2    0    9   31    0.001271    0.000059
   -2   -2    0   10   31    0.000612    0.000188
   -2   -2    0   11   31    0.005176   -0.000191
   -2   -2    0   12   31   -0.002133    0.000002
   -2   -2    0   13   31    0.002172   -0.000031
   -2   -2    0   14   31   -0.000101    0.000091
   -2   -2    0   15   31    0.004410    0.000147
   -2   -2    0   16   31   -0.000561    0.000030
   -2   -2    0   17   31   -0.001181   -0.000373
   -2   -2    0   18   31   -0.003457   -0.000474
   -2   -2    0   19   31   -0.008172   -0.000205
   -2   -2    0   20   31   -0.000291   -0.000244
   -2   -2    0   21   31   -0.003921   -0.000204
   -2   -2    0   22   31    0.007042    0.000251
   -2   -2    0   23   31    0.000073    0.000368
   -2   -2    0   24   31   -0.007559    0.000015
   -2   -2    0   25   31    0.004978    0.000604
   -2   -2    0   26   31    0.024684   -0.001374
   -2   -2    0   27   31   -0.001799   -0.000263
   -2   -2    0   28   31   -0.002210   -0.000101
   -2   -2    0   29   31   -0.006722    0.000097
   -2   -2    0   30   31    0.006428    0.000147
   -2   -2    0   31   31   -0.001395   -0.000000
   -2   -2    0   32   31   -0.004483   -0.000155
   -2   -2    0   33   31    0.003678   -0.000005
   -2   -2    0   34   31    0.002074    0.000526
   -2   -2    0    1   32   -0.001732    0.000083
   -2   -2    0    2   32   -0.000008   -0.000075
   -2   -2    0    3   32    0.004551    0.000051
   -2   -2    0    4   32    0.002745   -0.000060
   -2   -2    0    5   32    0.001656   -0.000126
   -2   -2    0    6   32   -0.001131   -0.000025
   -2   -2    0    7   32   -0.001418    0.000166
   -2   -2    0    8   32    0.002630   -0.000125
   -2   -2    0    9   32    0.003862    0.000112
   -2   -2    0   10   32   -0.002893   -0.000097
   -2   -2    0   11   32   -0.001142   -0.000156
   -2   -2    0   12   32   -0.007951   -0.000182
   -2   -2    0   13   32   -0.002474    0.000017
   -2   -2    0   14   32    0.001372    0.000192
   -2   -2    0   15   32    0.006945    0.000257
   -2   -2    0   16   32   -0.000423    0.000073
   -2   -2    0   17   32    0.001611   -0.000297
   -2   -2    0   18   32    0.001227   -0.000182
   -2   -2    0   19   32   -0.001218   -0.000194
   -2   -2    0   20   32    0.001803   -0.000156
   -2   -2    0   21   32   -0.004067   -0.000178
   -2   -2    0   22   32    0.005633   -0.000132
   -2   -2    0   23   32    0.004382   -0.000347
   -2   -2    0   24   32   -0.000736    0.000152
   -2   -2    0   25   32   -0.009308    0.000002
   -2   -2    0   26   32    0.022299    0.001309
   -2   -2    0   27   32    0.001408   -0.000247
   -2   -2    0   28   32   -0.000537    0.000172
   -2   -2    0   29   32    0.006018   -0.000512
   -2   -2    0   30   32    0.018643    0.000648
   -2   -2    0   31   32   -0.004483    0.000155
   -2   -2    0   32   32   -0.007104    0.000000
   -2   -2    0   33   32   -0.008784   -0.000353
   -2   -2    0   34   32    0.007580    0.000277
   -2   -2    0    1   33   -0.005472    0.000338
   -2   -2    0    2   33    0.000119   -0.000190
   -2   -2    0    3   33    0.002866   -0.000286
   -2   -2    0    4   33   -0.002116    0.000312
   -2   -2    0    5   33    0.000021   -0.000205
   -2   -2    0    6   33    0.003117    0.000453
   -2   -2    0    7   33    0.000235    0.000288
   -2   -2    0    8   33    0.004101   -0.000003
   -2   -2    0    9   33   -0.000118   -0.000209
   -2   -2    0   10   33   -0.000039   -0.000196
   -2   -2    0   11   33   -0.002757    0.000006
   -2   -2    0   12   33    0.004396    0.000060
   -2   -2    0   13   33    0.004430    0.000308
   -2   -2    0   14   33    0.001711   -0.000020
   -2   -2    0   15   33   -0.005673   -0.000237
   -2   -2    0   16   33    0.000451   -0.000050
   -2   -2    0   17   33    0.000507    0.000689
   -2   -2    0   18   33    0.002556    0.000948
   -2   -2    0   19   33    0.001291    0.000427
   -2   -2    0   20   33   -0.005666    0.000450
   -2   -2    0   21   33   -0.002513    0.000384
   -2   -2    0   22   33   -0.002650    0.000431
   -2   -2    0   23   33    0.006606    0.000571
   -2   -2    0   24   33   -0.002040   -0.000541
   -2   -2    0   25   33    0.004073    0.000001
   -2   -2    0   26   33   -0.011369    0.001714
   -2   -2    0   27   33   -0.003354    0.000614
   -2   -2    0   28   33    0.003080    0.000328
   -2   -2    0   29   33   -0.011216    0.000380
   -2   -2    0   30   33   -0.036796    0.000627
   -2   -2    0   31   33    0.003678    0.000005
   -2   -2    0   32   33   -0.008784    0.000353
   -2   -2    0   33   33   -0.001712    0.000000
   -2   -2    0   34   33   -0.001826   -0.000444
   -2   -2    0    1   34   -0.004540   -0.000060
   -2   -2    0    2   34    0.004199   -0.000002
   -2   -2    0    3   34    0.001076   -0.000376
   -2   -2    0    4   34   -0.000850    0.000021
   -2   -2    0    5   34   -0.003524   -0.000004
   -2   -2    0    6   34   -0.001681    0.000211
   -2   -2    0    7   34   -0.000319   -0.000337
   -2   -2    0    8   34   -0.000252    0.000166
   -2   -2    0    9   34   -0.000642   -0.000216
   -2   -2    0   10   34    0.001206   -0.000283
   -2   -2    0   11   34    0.003587    0.000210
   -2   -2    0   12   34   -0.003422    0.000240
   -2   -2    0   13   34   -0.000126    0.000041
   -2   -2    0   14   34    0.009373   -0.000076
   -2   -2    0   15   34    0.012068   -0.000408
   -2   -2    0   16   34   -0.003643   -0.000145
   -2   -2    0   17   34    0.001869    0.000308
   -2   -2    0   18   34    0.003737    0.000517
   -2   -2    0   19   34    0.001667    0.000371
   -2   -2    0   20   34   -0.000692    0.000240
   -2   -2    0   21   34   -0.002031    0.000544
   -2   -2    0   22   34    0.001952    0.000148
   -2   -2    0   23   34   -0.009832    0.000685
   -2   -2    0   24   34   -0.005385   -0.000850
   -2   -2    0   25   34   -0.002811    0.000351
   -2   -2    0   26   34   -0.012579   -0.001283
   -2   -2    0   27   34   -0.004582    0.000466
   -2   -2    0   28   34    0.013224   -0.000165
   -2   -2    0   29   34   -0.007082    0.001256
   -2   -2    0   30   34   -0.009773    0.000510
   -2   -2    0   31   34    0.002074   -0.000526
   -2   -2    0   32   34    0.007580   -0.000277
   -2   -2    0   33   34   -0.001826    0.000444
   -2   -2    0   34   34   -0.006784   -0.000000
   -2   -2    1    1    1    0.000001   -0.000104
   -2   -2    1    2    1   -0.000374    0.000023
   -2   -2    1    3    1   -0.000072    0.000069
   -2   -2    1    4    1   -0.000784   -0.000069
   -2   -2    1    5    1    0.001194    0.000021
   -2   -2    1    6    1    0.000075   -0.000082
   -2   -2    1    7    1   -0.001050   -0.000073
   -2   -2    1    8    1   -0.000702   -0.000022
   -2   -2    1    9    1    0.000109    0.000044
   -2   -2    1   10    1   -0.001362    0.000008
   -2   -2    1   11    1    0.000095   -0.000016
   -2   -2    1   12    1   -0.000399   -0.000001
   -2   -2    1   13    1    0.000617   -0.000076
   -2   -2    1   14    1   -0.000200    0.000005
   -2   -2    1   15    1   -0.000221    0.000050
   -2   -2    1   16    1   -0.000837   -0.000022
   -2   -2    1   17    1    0.000319   -0.000133
   -2   -2    1   18    1    0.000342   -0.000143
   -2   -2    1   19    1   -0.000030   -0.000072
   -2   -2    1   20    1   -0.000105   -0.000082
   -2   -2    1   21    1   -0.000221   -0.000105
   -2   -2    1   22    1   -0.000276   -0.000146
   -2   -2    1   23    1    0.000244   -0.000015
   -2   -2    1   24    1    0.001337    0.000022
   -2   -2    1   25    1    0.001157   -0.000067
   -2   -2    1   26    1   -0.005109   -0.000819
   -2   -2    1   27    1   -0.001385   -0.000047
   -2   -2    1   28    1    0.003327    0.000176
   -2   -2    1   29    1   -0.001211   -0.000118
   -2   -2    1   30    1    0.003878    0.000518
   -2   -2    1   31    1   -0.001997   -0.000016
   -2   -2    1   32    1   -0.000853   -0.000018
   -2   -2    1   33    1   -0.001706    0.000023
   -2   -2    1   34    1   -0.002483    0.000062
   -2   -2    1    1    2   -0.001560    0.000023
   -2   -2    1    2    2    0.001096   -0.000025
   -2   -2    1    3    2   -0.000531   -0.000038
   -2   -2    1    4    2    0.001664    0.000054
   -2   -2    1    5    2    0.001876   -0.000027
   -2   -2    1    6    2    0.001703    0.000048
   -2   -2    1    7    2   -0.000675    0.000031
   -2   -2    1    8    2    0.002865    0.000015
   -2   -2    1    9    2    0.001422   -0.000035
   -2   -2    1   10    2   -0.000168   -0.000011
   -2   -2    1   11    2   -0.001092   -0.000005
   -2   -2    1   12    2   -0.001194    0.000011
   -2   -2    1   13    2   -0.000872    0.000070
   -2   -2    1   14    2   -0.000311    0.000017
   -2   -2    1   15    2    0.000722   -0.000017
   -2   -2    1   16    2    0.000999    0.000030
   -2   -2    1   17    2   -0.001055    0.000116
   -2   -2    1   18    2   -0.000746    0.000131
   -2   -2    1   19    2    0.001637    0.000061
   -2   -2    1   20    2    0.001247    0.000019
   -2   -2    1   21    2    0.001025    0.000046
   -2   -2    1   22    2    0.003470   -0.000003
   -2   -2    1   23    2    0.011235   -0.000053
   -2   -2    1   24    2   -0.001972   -0.000088
   -2   -2    1   25    2    0.001389   -0.000021
   -2   -2    1   26    2    0.005677    0.000179
   -2   -2    1   27    2    0.002906   -0.000078
   -2   -2    1   28    2   -0.003605   -0.000041
   -2   -2    1   29    2    0.008201    0.000032
   -2   -2    1   30    2    0.011406   -0.000420
   -2   -2    1   31    2   -0.003422   -0.000068
   -2   -2    1   32    2   -0.000560   -0.000014
   -2   -2    1   33    2   -0.005053    0.000065
   -2   -2    1   34    2   -0.000097    0.000052
   -2   -2    1    1    3    0.001239   -0.000084
   -2   -2    1    2    3   -0.000857    0.000038
   -2   -2    1    3    3    0.000755    0.000003
   -2   -2    1    4    3    0.001365    0.000060
   -2   -2    1    5    3    0.001462   -0.000101
   -2   -2    1    6    3    0.002312    0.000031
   -2   -2    1    7    3    0.000931   -0.000050
   -2   -2    1    8    3    0.001473    0.000085
   -2   -2    1    9    3    0.002167    0.000079
   -2   -2    1   10    3   -0.000600    0.000006
   -2   -2    1   11    3   -0.000273   -0.000027
   -2   -2    1   12    3   -0.002671    0.000063
   -2   -2    1   13    3    0.000947   -0.000027
   -2   -2    1   14    3   -0.000332    0.000018
   -2   -2    1   15    3    0.000843    0.000071
   -2   -2    1   16    3    0.001831   -0.000000
   -2   -2    1   17    3   -0.000721   -0.000040
   -2   -2    1   18    3   -0.002178   -0.000027
   -2   -2    1   19    3   -0.001051    0.000024
   -2   -2    1   20    3   -0.000046   -0.000100
   -2   -2    1   21    3   -0.000343    0.000024
   -2   -2    1   22    3   -0.002566    0.000240
   -2   -2    1   23    3   -0.000236    0.000615
   -2   -2    1   24    3    0.005445   -0.000091
   -2   -2    1   25    3   -0.003029    0.000265
   -2   -2    1   26    3   -0.002186   -0.000654
   -2   -2    1   27    3    0.000966   -0.000147
   -2   -2    1   28    3    0.001744   -0.000281
   -2   -2    1   29    3   -0.007463    0.000366
   -2   -2    1   30    3   -0.024809    0.001430
   -2   -2    1   31    3    0.004108   -0.000144
   -2   -2    1   32    3    0.001935   -0.000050
   -2   -2    1   33    3    0.007629    0.000481
   -2   -2    1   34    3    0.000026    0.000184
   -2   -2    1    1    4    0.000790    0.000043
   -2   -2    1    2    4   -0.000329    0.000001
   -2   -2    1    3    4   -0.000804   -0.000017
   -2   -2    1    4    4    0.000037    0.000046
   -2   -2    1    5    4   -0.000301   -0.000024
   -2   -2    1    6    4    0.000308    0.000039
   -2   -2    1    7    4   -0.001351    0.000020
   -2   -2    1    8    4    0.000155    0.000012
   -2   -2    1    9    4   -0.000520   -0.000014
   -2   -2    1   10    4   -0.000110   -0.000003
   -2   -2    1   11    4   -0.000969   -0.000005
   -2   -2    1   12    4   -0.000009   -0.000015
   -2   -2    1   13    4   -0.000118    0.000020
   -2   -2    1   14    4    0.000197   -0.000014
   -2   -2    1   15    4    0.000165   -0.000041
   -2   -2    1   16    4    0.000663    0.000031
   -2   -2    1   17    4    0.000069    0.000104
   -2   -2    1   18    4   -0.000071    0.000137
   -2   -2    1   19    4    0.001466    0.000081
   -2   -2    1   20    4    0.000232    0.000061
   -2   -2    1   21    4    0.001120    0.000059
   -2   -2    1   22    4    0.000404    0.000056
   -2   -2    1   23    4   -0.000930    0.000017
   -2   -2    1   24    4   -0.002357   -0.000124
   -2   -2    1   25    4    0.000321   -0.000044
   -2   -2    1   26    4    0.007682    0.000237
   -2   -2    1   27    4    0.000209    0.000045
   -2   -2    1   28    4   -0.003050    0.000085
   -2   -2    1   29    4   -0.001337    0.000156
   -2   -2    1   30    4   -0.009806   -0.000493
   -2   -2    1   31    4   -0.001249   -0.000010
   -2   -2    1   32    4    0.000624    0.000062
   -2   -2    1   33    4   -0.001407    0.000099
   -2   -2    1   34    4    0.000065   -0.000006
   -2   -2    1    1    5   -0.000128   -0.000021
   -2   -2    1    2    5    0.000713   -0.000006
   -2   -2    1    3    5    0.000362    0.000035
   -2   -2    1    4    5   -0.000839   -0.000085
   -2   -2    1    5    5    0.001446    0.000046
   -2   -2    1    6    5    0.000170   -0.000058
   -2   -2    1    7    5   -0.000443   -0.000006
   -2   -2    1    8    5   -0.001219   -0.000032
   -2   -2    1    9    5   -0.000072   -0.000018
   -2   -2    1   10    5   -0.000752    0.000008
   -2   -2    1   11    5    0.000047    0.000007
   -2   -2    1   12    5    0.000177   -0.000027
   -2   -2    1   13    5   -0.000692   -0.000038
   -2   -2    1   14    5   -0.000305   -0.000004
   -2   -2    1   15    5   -0.000582    0.000008
   -2   -2    1   16    5   -0.001412   -0.000022
   -2   -2    1   17    5    0.000038   -0.000097
   -2   -2    1   18    5    0.000179   -0.000109
   -2   -2    1   19    5   -0.000482   -0.000023
   -2   -2    1   20    5    0.001902   -0.000070
   -2   -2    1   21    5   -0.000182   -0.000038
   -2   -2    1   22    5    0.000459   -0.000059
   -2   -2    1   23    5    0.000251   -0.000448
   -2   -2    1   24    5   -0.000496    0.000071
   -2   -2    1   25    5   -0.000019   -0.000157
   -2   -2    1   26    5    0.006945   -0.000056
   -2   -2    1   27    5    0.001070   -0.000082
   -2   -2    1   28    5   -0.001914    0.000073
   -2   -2    1   29    5    0.005005   -0.000641
   -2   -2    1   30    5    0.015300   -0.000834
   -2   -2    1   31    5   -0.002205    0.000129
   -2   -2    1   32    5    0.000492    0.000064
   -2   -2    1   33    5   -0.004023   -0.000134
   -2   -2    1   34    5   -0.000644    0.000036
   -2   -2    1    1    6   -0.000254    0.000040
   -2   -2    1    2    6    0.000798   -0.000013
   -2   -2    1    3    6    0.000112    0.000036
   -2   -2    1    4    6    0.000774    0.000002
   -2   -2    1    5    6   -0.000506    0.000014
   -2   -2    1    6    6    0.000052    0.000012
   -2   -2    1    7    6    0.000201    0.000043
   -2   -2    1    8    6   -0.001148   -0.000061
   -2   -2    1    9    6   -0.002428   -0.000029
   -2   -2    1   10    6   -0.000300   -0.000038
   -2   -2    1   11    6    0.000215    0.000032
   -2   -2    1   12    6   -0.000375   -0.000033
   -2   -2    1   13    6    0.000232   -0.000017
   -2   -2    1   14    6    0.000159   -0.000051
   -2   -2    1   15    6    0.000017   -0.000057
   -2   -2    1   16    6    0.000016    0.000044
   -2   -2    1   17    6    0.001305    0.000026
   -2   -2    1   18    6   -0.000144    0.000027
   -2   -2    1   19    6    0.000614   -0.000018
   -2   -2    1   20    6   -0.000628    0.000100
   -2   -2    1   21    6    0.000308   -0.000047
   -2   -2    1   22    6   -0.000228   -0.000047
   -2   -2    1   23    6   -0.000977   -0.000393
   -2   -2    1   24    6   -0.000026    0.000041
   -2   -2    1   25    6   -0.001053   -0.000197
   -2   -2    1   26    6    0.006958    0.000823
   -2   -2    1   27    6   -0.000616    0.000098
   -2   -2    1   28    6    0.001087    0.000227
   -2   -2    1   29    6   -0.000956   -0.000409
   -2   -2    1   30    6    0.002910   -0.001263
   -2   -2    1   31    6   -0.001504    0.000123
   -2   -2    1   32    6   -0.000301    0.000118
   -2   -2    1   33    6    0.000731   -0.000078
   -2   -2    1   34    6   -0.000973   -0.000102
   -2   -2    1    1    7   -0.000858   -0.000061
   -2   -2    1    2    7   -0.000568    0.000040
   -2   -2    1    3    7   -0.000062    0.000061
   -2   -2    1    4    7   -0.000137   -0.000015
   -2   -2    1    5    7    0.000162   -0.000029
   -2   -2    1    6    7    0.000258   -0.000044
   -2   -2    1    7    7    0.000522   -0.000037
   -2   -2    1    8    7   -0.001961    0.000051
   -2   -2    1    9    7    0.001382    0.000073
   -2   -2    1   10    7    0.000585    0.000022
   -2   -2    1   11    7   -0.000355   -0.000096
   -2   -2    1   12    7   -0.000913    0.000001
   -2   -2    1   13    7    0.000353   -0.000046
   -2   -2    1   14    7   -0.000136    0.000001
   -2   -2    1   15    7   -0.000491    0.000076
   -2   -2    1   16    7   -0.000018   -0.000038
   -2   -2    1   17    7   -0.000180   -0.000044
   -2   -2    1   18    7   -0.000040   -0.000024
   -2   -2    1   19    7   -0.000436    0.000060
   -2   -2    1   20    7    0.000677   -0.000130
   -2   -2    1   21    7   -0.000763    0.000020
   -2   -2    1   22    7   -0.000009    0.000007
   -2   -2    1   23    7   -0.004225    0.000707
   -2   -2    1   24    7    0.000404   -0.000072
   -2   -2    1   25    7   -0.000884   -0.000109
   -2   -2    1   26    7   -0.003486   -0.001624
   -2   -2    1   27    7    0.001748   -0.000174
   -2   -2    1   28    7   -0.000729   -0.000178
   -2   -2    1   29    7   -0.002368   -0.000029
   -2   -2    1   30    7   -0.000243    0.000503
   -2   -2    1   31    7    0.001932   -0.000056
   -2   -2    1   32    7   -0.001106   -0.000058
   -2   -2    1   33    7   -0.000098    0.000214
   -2   -2    1   34    7    0.001116    0.000120
   -2   -2    1    1    8   -0.000589    0.000138
   -2   -2    1    2    8   -0.000304   -0.000063
   -2   -2    1    3    8    0.001242   -0.000037
   -2   -2    1    4    8   -0.000330    0.000003
   -2   -2    1    5    8   -0.000223    0.000030
   -2   -2    1    6    8    0.000385    0.000026
   -2   -2    1    7    8    0.000129    0.000056
   -2   -2    1    8    8    0.001189   -0.000045
   -2   -2    1    9    8   -0.000553   -0.000052
   -2   -2    1   10    8   -0.000511   -0.000043
   -2   -2    1   11    8    0.000133    0.000026
   -2   -2    1   12    8    0.001214   -0.000050
   -2   -2    1   13    8   -0.000170    0.000053
   -2   -2    1   14    8    0.000174    0.000001
   -2   -2    1   15    8    0.000630   -0.000045
   -2   -2    1   16    8    0.000525    0.000015
   -2   -2    1   17    8   -0.000120    0.000088
   -2   -2    1   18    8   -0.000625    0.000103
   -2   -2    1   19    8   -0.000249    0.000074
   -2   -2    1   20    8   -0.000359    0.000088
   -2   -2    1   21    8   -0.000532    0.000077
   -2   -2    1   22    8    0.001515   -0.000067
   -2   -2    1   23    8   -0.002055   -0.000473
   -2   -2    1   24    8    0.000954    0.000003
   -2   -2    1   25    8    0.000032   -0.000229
   -2   -2    1   26    8    0.003585   -0.001423
   -2   -2    1   27    8   -0.000525    0.000137
   -2   -2    1   28    8    0.000774    0.000134
   -2   -2    1   29    8    0.000212   -0.000720
   -2   -2    1   30    8   -0.000703   -0.000689
   -2   -2    1   31    8    0.000818    0.000123
   -2   -2    1   32    8    0.000975   -0.000026
   -2   -2    1   33    8   -0.000422   -0.000414
   -2   -2    1   34    8    0.000541   -0.000171
   -2   -2    1    1    9    0.000058   -0.000020
   -2   -2    1    2    9    0.000822   -0.000007
   -2   -2    1    3    9   -0.001328   -0.000043
   -2   -2    1    4    9    0.000016    0.000069
   -2   -2    1    5    9    0.000581   -0.000043
   -2   -2    1    6    9    0.000917    0.000049
   -2   -2    1    7    9   -0.000146   -0.000051
   -2   -2    1    8    9   -0.000011    0.000048
   -2   -2    1    9    9    0.000492    0.000049
   -2   -2    1   10    9   -0.000679    0.000005
   -2   -2    1   11    9    0.000531   -0.000006
   -2   -2    1   12    9    0.000161    0.000058
   -2   -2    1   13    9   -0.000797    0.000034
   -2   -2    1   14    9   -0.000062   -0.000004
   -2   -2    1   15    9    0.000033   -0.000005
   -2   -2    1   16    9    0.000308    0.000014
   -2   -2    1   17    9    0.000382    0.000035
   -2   -2    1   18    9   -0.000485    0.000078
   -2   -2    1   19    9    0.000784    0.000008
   -2   -2    1   20    9    0.001804    0.000004
   -2   -2    1   21    9    0.001021    0.000022
   -2   -2    1   22    9    0.000281    0.000233
   -2   -2    1   23    9   -0.000948    0.000571
   -2   -2    1   24    9   -0.002201   -0.000111
   -2   -2    1   25    9   -0.002150    0.000381
   -2   -2    1   26    9    0.005739    0.000349
   -2   -2    1   27    9    0.000725   -0.000040
   -2   -2    1   28    9    0.002902   -0.000191
   -2   -2    1   29    9    0.005150    0.000333
   -2   -2    1   30    9    0.011768    0.000259
   -2   -2    1   31    9   -0.002778   -0.000077
   -2   -2    1   32    9    0.001652   -0.000003
   -2   -2    1   33    9    0.003368    0.000261
   -2   -2    1   34    9   -0.002324    0.000116
   -2   -2    1    1   10    0.000104   -0.000048
   -2   -2    1    2   10   -0.000569    0.000054
   -2   -2    1    3   10    0.000308   -0.000094
   -2   -2    1    4   10    0.000726    0.000142
   -2   -2    1    5   10   -0.000876   -0.000114
   -2   -2    1    6   10    0.000392    0.000111
   -2   -2    1    7   10    0.000119   -0.000040
   -2   -2    1    8   10    0.001036    0.000122
   -2   -2    1    9   10    0.000532   -0.000005
   -2   -2    1   10   10    0.000182    0.000107
   -2   -2    1   11   10   -0.001132   -0.000021
   -2   -2    1   12   10    0.000738    0.000157
   -2   -2    1   13   10    0.000133    0.000080
   -2   -2    1   14   10   -0.000132    0.000104
   -2   -2    1   15   10   -0.000020    0.000008
   -2   -2    1   16   10   -0.000328    0.000005
   -2   -2    1   17   10   -0.000641    0.000163
   -2   -2    1   18   10    0.001066    0.000249
   -2   -2    1   19   10   -0.000522    0.000145
   -2   -2    1   20   10   -0.000752   -0.000067
   -2   -2    1   21   10    0.000810    0.000166
   -2   -2    1   22   10   -0.000524    0.000112
   -2   -2    1   23   10    0.002870    0.000815
   -2   -2    1   24   10    0.000893   -0.000468
   -2   -2    1   25   10    0.003171    0.000661
   -2   -2    1   26   10   -0.006056   -0.001480
   -2   -2    1   27   10   -0.000227   -0.000075
   -2   -2    1   28   10    0.000565   -0.000306
   -2   -2    1   29   10    0.005673    0.001381
   -2   -2    1   30   10    0.012259    0.000167
   -2   -2    1   31   10    0.000720   -0.000210
   -2   -2    1   32   10    0.000632   -0.000252
   -2   -2    1   33   10    0.004296    0.000183
   -2   -2    1   34   10    0.000365    0.000208
   -2   -2    1    1   11   -0.000715    0.000000
   -2   -2    1    2   11    0.000061   -0.000008
   -2   -2    1    3   11    0.000755    0.000020
   -2   -2    1    4   11    0.000158   -0.000093
   -2   -2    1    5   11   -0.001294    0.000046
   -2   -2    1    6   11    0.001457   -0.000045
   -2   -2    1    7   11    0.001676   -0.000025
   -2   -2    1    8   11    0.001338   -0.000037
   -2   -2    1    9   11    0.000846   -0.000102
   -2   -2    1   10   11    0.000238    0.000013
   -2   -2    1   11   11    0.001463    0.000058
   -2   -2    1   12   11   -0.000234   -0.000008
   -2   -2    1   13   11    0.000008   -0.000029
   -2   -2    1   14   11    0.000262    0.000025
   -2   -2    1   15   11    0.000186   -0.000040
   -2   -2    1   16   11   -0.000379   -0.000019
   -2   -2    1   17   11   -0.000460   -0.000090
   -2   -2    1   18   11   -0.000348   -0.000112
   -2   -2    1   19   11   -0.001796   -0.000089
   -2   -2    1   20   11   -0.002184   -0.000095
   -2   -2    1   21   11   -0.001543   -0.000065
   -2   -2    1   22   11   -0.001432   -0.000169
   -2   -2    1   23   11   -0.002418   -0.000787
   -2   -2    1   24   11    0.000892    0.000152
   -2   -2    1   25   11    0.003671    0.000016
   -2   -2    1   26   11   -0.006087    0.000172
   -2   -2    1   27   11   -0.001384    0.000010
   -2   -2    1   28   11   -0.001508    0.000177
   -2   -2    1   29   11    0.002278   -0.000544
   -2   -2    1   30   11   -0.021145   -0.001611
   -2   -2    1   31   11    0.002614    0.000184
   -2   -2    1   32   11   -0.001083    0.000043
   -2   -2    1   33   11    0.000798   -0.000502
   -2   -2    1   34   11    0.003393    0.000006
   -2   -2    1    1   12    0.000740    0.000152
   -2   -2    1    2   12    0.000251   -0.000050
   -2   -2    1    3   12    0.001092   -0.000043
   -2   -2    1    4   12   -0.000639    0.000033
   -2   -2    1    5   12    0.000881    0.000013
   -2   -2    1    6   12    0.000697    0.000070
   -2   -2    1    7   12    0.001101    0.000088
   -2   -2    1    8   12    0.001190   -0.000039
   -2   -2    1    9   12    0.001742   -0.000068
   -2   -2    1   10   12   -0.000429   -0.000003
   -2   -2    1   11   12   -0.000333   -0.000005
   -2   -2    1   12   12    0.000412   -0.000045
   -2   -2    1   13   12   -0.000581    0.000064
   -2   -2    1   14   12   -0.001017   -0.000038
   -2   -2    1   15   12   -0.000319   -0.000064
   -2   -2    1   16   12   -0.000194    0.000029
   -2   -2    1   17   12    0.000715    0.000171
   -2   -2    1   18   12   -0.003058    0.000218
   -2   -2    1   19   12   -0.000688    0.000085
   -2   -2    1   20   12    0.001921    0.000183
   -2   -2    1   21   12    0.000066    0.000091
   -2   -2    1   22   12   -0.004134   -0.000074
   -2   -2    1   23   12    0.011076   -0.000931
   -2   -2    1   24   12    0.000823    0.000003
   -2   -2    1   25   12   -0.000125   -0.000234
   -2   -2    1   26   12    0.003401   -0.000676
   -2   -2    1   27   12    0.000629    0.000154
   -2   -2    1   28   12   -0.001220    0.000144
   -2   -2    1   29   12    0.002230   -0.000388
   -2   -2    1   30   12    0.017388   -0.000737
   -2   -2    1   31   12   -0.000290    0.000095
   -2   -2    1   32   12   -0.000160   -0.000019
   -2   -2    1   33   12    0.004794   -0.000004
   -2   -2    1   34   12    0.000597   -0.000202
   -2   -2    1    1   13    0.000588    0.000006
   -2   -2    1    2   13   -0.000299    0.000006
   -2   -2    1    3   13   -0.000030   -0.000003
   -2   -2    1    4   13   -0.000619    0.000028
   -2   -2    1    5   13   -0.000986    0.000004
   -2   -2    1    6   13    0.000053    0.000026
   -2   -2    1    7   13   -0.000841   -0.000020
   -2   -2    1    8   13    0.000420   -0.000030
   -2   -2    1    9   13    0.001505    0.000012
   -2   -2    1   10   13    0.000126    0.000020
   -2   -2    1   11   13   -0.000472   -0.000020
   -2   -2    1   12   13    0.000546   -0.000004
   -2   -2    1   13   13    0.001622   -0.000001
   -2   -2    1   14   13   -0.000632    0.000014
   -2   -2    1   15   13    0.000383   -0.000005
   -2   -2    1   16   13   -0.001857    0.000022
   -2   -2    1   17   13   -0.000525   -0.000009
   -2   -2    1   18   13   -0.000122    0.000015
   -2   -2    1   19   13   -0.000299    0.000040
   -2   -2    1   20   13    0.001428    0.000036
   -2   -2    1   21   13    0.000308    0.000036
   -2   -2    1   22   13   -0.000355   -0.000009
   -2   -2    1   23   13    0.005098   -0.000089
   -2   -2    1   24   13   -0.002934   -0.000118
   -2   -2    1   25   13    0.003459    0.000052
   -2   -2    1   26   13    0.002348   -0.000677
   -2   -2    1   27   13   -0.000101    0.000044
[...]
    2    2    0   10   23   -0.004221    0.000178
    2    2    0   11   23   -0.004333    0.000012
    2    2    0   12   23    0.003110    0.000202
    2    2    0   13   23   -0.003142    0.000705
    2    2    0   14   23   -0.005616   -0.000013
    2    2    0   15   23    0.000130   -0.000240
    2    2    0   16   23    0.001178    0.000196
    2    2    0   17   23    0.007855    0.002095
    2    2    0   18   23    0.004138    0.002156
    2    2    0   19   23    0.005622    0.000811
    2    2    0   20   23    0.006437    0.001377
    2    2    0   21   23    0.003213    0.000814
    2    2    0   22   23    0.000216    0.000192
    2    2    0   23   23   -0.000796    0.000000
    2    2    0   24   23   -0.004276   -0.000780
    2    2    0   25   23   -0.008599   -0.000291
    2    2    0   26   23    0.020167    0.002818
    2    2    0   27   23    0.003989    0.001038
    2    2    0   28   23   -0.011993    0.000233
    2    2    0   29   23    0.002416    0.000344
    2    2    0   30   23    0.007592   -0.001483
    2    2    0   31   23    0.000073   -0.000368
    2    2    0   32   23    0.004382    0.000347
    2    2    0   33   23    0.006606   -0.000571
    2    2    0   34   23   -0.009832   -0.000685
    2    2    0    1   24    0.003164   -0.000268
    2    2    0    2   24   -0.004451    0.000159
    2    2    0    3   24   -0.000924    0.000205
    2    2    0    4   24   -0.002477    0.000147
    2    2    0    5   24   -0.000629   -0.000260
    2    2    0    6   24   -0.004028   -0.000160
    2    2    0    7   24    0.001366    0.000101
    2    2    0    8   24    0.003851   -0.000106
    2    2    0    9   24   -0.003168    0.000300
    2    2    0   10   24    0.001177    0.000103
    2    2    0   11   24    0.006947   -0.000191
    2    2    0   12   24   -0.000792   -0.000150
    2    2    0   13   24   -0.004207   -0.000054
    2    2    0   14   24    0.000591    0.000313
    2    2    0   15   24   -0.004408    0.000470
    2    2    0   16   24    0.000460    0.000115
    2    2    0   17   24   -0.010934   -0.000660
    2    2    0   18   24   -0.020747   -0.000689
    2    2    0   19   24   -0.004066   -0.000325
    2    2    0   20   24    0.000139   -0.000429
    2    2    0   21   24   -0.004944   -0.000365
    2    2    0   22   24    0.008072    0.000192
    2    2    0   23   24   -0.004276    0.000780
    2    2    0   24   24   -0.001979    0.000000
    2    2    0   25   24    0.019031    0.000626
    2    2    0   26   24    0.008683   -0.000923
    2    2    0   27   24   -0.003700   -0.000432
    2    2    0   28   24   -0.003357   -0.000132
    2    2    0   29   24    0.001469    0.001161
    2    2    0   30   24   -0.002633    0.002126
    2    2    0   31   24   -0.007559   -0.000015
    2    2    0   32   24   -0.000736   -0.000152
    2    2    0   33   24   -0.002040    0.000541
    2    2    0   34   24   -0.005385    0.000850
    2    2    0    1   25   -0.005995    0.000456
    2    2    0    2   25   -0.009743   -0.000351
    2    2    0    3   25    0.001784   -0.000325
    2    2    0    4   25   -0.002161   -0.000242
    2    2    0    5   25    0.000595    0.000366
    2    2    0    6   25    0.011908   -0.000020
    2    2    0    7   25   -0.003630   -0.000154
    2    2    0    8   25    0.004468    0.000193
    2    2    0    9   25    0.010483   -0.000779
    2    2    0   10   25   -0.004039    0.000019
    2    2    0   11   25   -0.002059   -0.000181
    2    2    0   12   25   -0.006921    0.000093
    2    2    0   13   25   -0.003768    0.000247
    2    2    0   14   25   -0.000981   -0.000390
    2    2    0   15   25    0.010421   -0.001056
    2    2    0   16   25   -0.002424   -0.000346
    2    2    0   17   25    0.002089    0.000421
    2    2    0   18   25    0.003545    0.000706
    2    2    0   19   25   -0.003123    0.000595
    2    2    0   20   25    0.000735    0.000515
    2    2    0   21   25   -0.005197    0.000565
    2    2    0   22   25   -0.000515    0.000054
    2    2    0   23   25   -0.008599    0.000291
    2    2    0   24   25    0.019031   -0.000626
    2    2    0   25   25   -0.009210   -0.000000
    2    2    0   26   25   -0.006423    0.001065
    2    2    0   27   25   -0.003411    0.000898
    2    2    0   28   25   -0.010140   -0.000169
    2    2    0   29   25    0.005641    0.000608
    2    2    0   30   25   -0.056814   -0.002176
    2    2    0   31   25    0.004978   -0.000604
    2    2    0   32   25   -0.009308   -0.000002
    2    2    0   33   25    0.004073   -0.000001
    2    2    0   34   25   -0.002811   -0.000351
    2    2    0    1   26    0.013663   -0.000939
    2    2    0    2   26    0.014235    0.001356
    2    2    0    3   26    0.000147    0.000738
    2    2    0    4   26    0.011762    0.000897
    2    2    0    5   26    0.025140   -0.000860
    2    2    0    6   26    0.004018    0.000121
    2    2    0    7   26    0.019789    0.000798
    2    2    0    8   26   -0.009337   -0.000415
    2    2    0    9   26    0.001421    0.001284
    2    2    0   10   26   -0.001994    0.000369
    2    2    0   11   26    0.009054    0.000369
    2    2    0   12   26    0.002238   -0.000568
    2    2    0   13   26    0.013967   -0.000017
    2    2    0   14   26   -0.003111    0.001590
    2    2    0   15   26   -0.011040    0.002553
    2    2    0   16   26   -0.000952    0.000959
    2    2    0   17   26   -0.000706   -0.000889
    2    2    0   18   26    0.003625   -0.001811
    2    2    0   19   26    0.000933   -0.001571
    2    2    0   20   26    0.000817   -0.001291
    2    2    0   21   26    0.010101   -0.001242
    2    2    0   22   26    0.003272   -0.000947
    2    2    0   23   26    0.020167   -0.002818
    2    2    0   24   26    0.008683    0.000923
    2    2    0   25   26   -0.006423   -0.001065
    2    2    0   26   26   -0.045208    0.000000
    2    2    0   27   26    0.008724   -0.002024
    2    2    0   28   26    0.008720    0.000014
    2    2    0   29   26   -0.018054   -0.001940
    2    2    0   30   26    0.018600   -0.000586
    2    2    0   31   26    0.024684    0.001374
    2    2    0   32   26    0.022299   -0.001309
    2    2    0   33   26   -0.011369   -0.001714
    2    2    0   34   26   -0.012579    0.001283
    2    2    0    1   27   -0.000408   -0.000005
    2    2    0    2   27    0.002669    0.000022
    2    2    0    3   27    0.000159    0.000119
    2    2    0    4   27   -0.000240   -0.000179
    2    2    0    5   27    0.002175    0.000243
    2    2    0    6   27    0.000989   -0.000108
    2    2    0    7   27    0.000539    0.000206
    2    2    0    8   27    0.000618   -0.000172
    2    2    0    9   27    0.001279    0.000058
    2    2    0   10   27   -0.001850   -0.000166
    2    2    0   11   27    0.000444    0.000080
    2    2    0   12   27    0.003174   -0.000056
    2    2    0   13   27   -0.000695   -0.000175
    2    2    0   14   27    0.000475   -0.000101
    2    2    0   15   27   -0.000341   -0.000083
    2    2    0   16   27    0.000848    0.000111
    2    2    0   17   27    0.001373   -0.000155
    2    2    0   18   27    0.000932   -0.000370
    2    2    0   19   27    0.001974   -0.000105
    2    2    0   20   27    0.000718    0.000004
    2    2    0   21   27    0.001040   -0.000172
    2    2    0   22   27   -0.002475   -0.000310
    2    2    0   23   27    0.003989   -0.001038
    2    2    0   24   27   -0.003700    0.000432
    2    2    0   25   27   -0.003411   -0.000898
    2    2    0   26   27    0.008724    0.002024
    2    2    0   27   27    0.000440    0.000000
    2    2    0   28   27    0.002404    0.000439
    2    2    0   29   27    0.005510   -0.001362
    2    2    0   30   27    0.020467   -0.000377
    2    2    0   31   27   -0.001799    0.000263
    2    2    0   32   27    0.001408    0.000247
    2    2    0   33   27   -0.003354   -0.000614
    2    2    0   34   27   -0.004582   -0.000466
    2    2    0    1   28   -0.003274   -0.000107
    2    2    0    2   28    0.000456   -0.000002
    2    2    0    3   28    0.001273    0.000029
    2    2    0    4   28    0.003183   -0.000070
    2    2    0    5   28    0.000753   -0.000097
    2    2    0    6   28   -0.001126    0.000032
    2    2    0    7   28   -0.004993    0.000024
    2    2    0    8   28   -0.002227   -0.000437
    2    2    0    9   28   -0.003577    0.000090
    2    2    0   10   28    0.004529   -0.000227
    2    2    0   11   28    0.000145    0.000114
    2    2    0   12   28   -0.000802   -0.000178
    2    2    0   13   28   -0.000923   -0.000165
    2    2    0   14   28    0.006568    0.000033
    2    2    0   15   28   -0.000367    0.000177
    2    2    0   16   28    0.005346    0.000005
    2    2    0   17   28   -0.002256   -0.000607
    2    2    0   18   28    0.006670   -0.000593
    2    2    0   19   28    0.001714   -0.000334
    2    2    0   20   28   -0.003761   -0.000417
    2    2    0   21   28   -0.001626   -0.000287
    2    2    0   22   28    0.012191    0.000034
    2    2    0   23   28   -0.011993   -0.000233
    2    2    0   24   28   -0.003357    0.000132
    2    2    0   25   28   -0.010140    0.000169
    2    2    0   26   28    0.008720   -0.000014
    2    2    0   27   28    0.002404   -0.000439
    2    2    0   28   28    0.006619   -0.000000
    2    2    0   29   28    0.004520   -0.000165
    2    2    0   30   28   -0.018677    0.000040
    2    2    0   31   28   -0.002210    0.000101
    2    2    0   32   28   -0.000537   -0.000172
    2    2    0   33   28    0.003080   -0.000328
    2    2    0   34   28    0.013224    0.000165
    2    2    0    1   29   -0.008289    0.001309
    2    2    0    2   29    0.013113   -0.000254
    2    2    0    3   29    0.006423   -0.000302
    2    2    0    4   29   -0.002066   -0.000313
    2    2    0    5   29    0.011755    0.000627
    2    2    0    6   29    0.000171    0.000783
    2    2    0    7   29   -0.007352   -0.000211
    2    2    0    8   29    0.002062    0.000975
    2    2    0    9   29    0.001008   -0.000466
    2    2    0   10   29   -0.000778   -0.000191
    2    2    0   11   29   -0.000560    0.000423
    2    2    0   12   29    0.014291    0.000362
    2    2    0   13   29   -0.003262    0.000896
    2    2    0   14   29    0.005016    0.000100
    2    2    0   15   29   -0.002340   -0.000850
    2    2    0   16   29   -0.003828   -0.000286
    2    2    0   17   29    0.009191    0.001847
    2    2    0   18   29    0.017883    0.002347
    2    2    0   19   29    0.011587    0.001153
    2    2    0   20   29    0.005377    0.001171
    2    2    0   21   29    0.001096    0.001116
    2    2    0   22   29    0.016673    0.000128
    2    2    0   23   29    0.002416   -0.000344
    2    2    0   24   29    0.001469   -0.001161
    2    2    0   25   29    0.005641   -0.000608
    2    2    0   26   29   -0.018054    0.001940
    2    2    0   27   29    0.005510    0.001362
    2    2    0   28   29    0.004520    0.000165
    2    2    0   29   29    0.011371    0.000000
    2    2    0   30   29    0.011138   -0.002857
    2    2    0   31   29   -0.006722   -0.000097
    2    2    0   32   29    0.006018    0.000512
    2    2    0   33   29   -0.011216   -0.000380
    2    2    0   34   29   -0.007082   -0.001256
    2    2    0    1   30    0.004312    0.001562
    2    2    0    2   30    0.005947   -0.001070
    2    2    0    3   30    0.010441   -0.001164
    2    2    0    4   30    0.027155    0.001436
    2    2    0    5   30   -0.000562   -0.000098
    2    2    0    6   30   -0.001048    0.002148
    2    2    0    7   30   -0.007477    0.000719
    2    2    0    8   30    0.015419   -0.000042
    2    2    0    9   30   -0.005448   -0.000228
    2    2    0   10   30   -0.004409    0.001143
    2    2    0   11   30    0.000751    0.000566
    2    2    0   12   30    0.003007    0.000072
    2    2    0   13   30   -0.013818    0.000745
    2    2    0   14   30   -0.000123    0.000273
    2    2    0   15   30    0.003961   -0.000516
    2    2    0   16   30    0.026651    0.000857
    2    2    0   17   30   -0.003611    0.002907
    2    2    0   18   30    0.006267    0.002917
    2    2    0   19   30    0.005564    0.001109
    2    2    0   20   30    0.003790    0.000870
    2    2    0   21   30   -0.003333    0.001106
    2    2    0   22   30    0.033479    0.001028
    2    2    0   23   30    0.007592    0.001483
    2    2    0   24   30   -0.002633   -0.002126
    2    2    0   25   30   -0.056814    0.002176
    2    2    0   26   30    0.018600    0.000586
    2    2    0   27   30    0.020467    0.000377
    2    2    0   28   30   -0.018677   -0.000040
    2    2    0   29   30    0.011138    0.002857
    2    2    0   30   30    0.010915    0.000000
    2    2    0   31   30    0.006428   -0.000147
    2    2    0   32   30    0.018643   -0.000648
    2    2    0   33   30   -0.036796   -0.000627
    2    2    0   34   30   -0.009773   -0.000510
    2    2    0    1   31    0.002806   -0.000108
    2    2    0    2   31   -0.001593    0.000002
    2    2    0    3   31    0.011456    0.000112
    2    2    0    4   31    0.003933    0.000023
    2    2    0    5   31   -0.006623   -0.000037
    2    2    0    6   31    0.001703   -0.000181
    2    2    0    7   31   -0.002149    0.000016
    2    2    0    8   31    0.002327   -0.000168
    2    2    0    9   31    0.001271    0.000059
    2    2    0   10   31    0.000612    0.000188
    2    2    0   11   31    0.005176   -0.000191
    2    2    0   12   31   -0.002133    0.000002
    2    2    0   13   31    0.002172   -0.000031
    2    2    0   14   31   -0.000101    0.000091
    2    2    0   15   31    0.004410    0.000147
    2    2    0   16   31   -0.000561    0.000030
    2    2    0   17   31   -0.001181   -0.000373
    2    2    0   18   31   -0.003457   -0.000474
    2    2    0   19   31   -0.008172   -0.000205
    2    2    0   20   31   -0.000291   -0.000244
    2    2    0   21   31   -0.003921   -0.000204
    2    2    0   22   31    0.007042    0.000251
    2    2    0   23   31    0.000073    0.000368
    2    2    0   24   31   -0.007559    0.000015
    2    2    0   25   31    0.004978    0.000604
    2    2    0   26   31    0.024684   -0.001374
    2    2    0   27   31   -0.001799   -0.000263
    2    2    0   28   31   -0.002210   -0.000101
    2    2    0   29   31   -0.006722    0.000097
    2    2    0   30   31    0.006428    0.000147
    2    2    0   31   31   -0.001395   -0.000000
    2    2    0   32   31   -0.004483   -0.000155
    2    2    0   33   31    0.003678   -0.000005
    2    2    0   34   31    0.002074    0.000526
    2    2    0    1   32   -0.001732    0.000083
    2    2    0    2   32   -0.000008   -0.000075
    2    2    0    3   32    0.004551    0.000051
    2    2    0    4   32    0.002745   -0.000060
    2    2    0    5   32    0.001656   -0.000126
    2    2    0    6   32   -0.001131   -0.000025
    2    2    0    7   32   -0.001418    0.000166
    2    2    0    8   32    0.002630   -0.000125
    2    2    0    9   32    0.003862    0.000112
    2    2    0   10   32   -0.002893   -0.000097
    2    2    0   11   32   -0.001142   -0.000156
    2    2    0   12   32   -0.007951   -0.000182
    2    2    0   13   32   -0.002474    0.000017
    2    2    0   14   32    0.001372    0.000192
    2    2    0   15   32    0.006945    0.000257
    2    2    0   16   32   -0.000423    0.000073
    2    2    0   17   32    0.001611   -0.000297
    2    2    0   18   32    0.001227   -0.000182
    2    2    0   19   32   -0.001218   -0.000194
    2    2    0   20   32    0.001803   -0.000156
    2    2    0   21   32   -0.004067   -0.000178
    2    2    0   22   32    0.005633   -0.000132
    2    2    0   23   32    0.004382   -0.000347
    2    2    0   24   32   -0.000736    0.000152
    2    2    0   25   32   -0.009308    0.000002
    2    2    0   26   32    0.022299    0.001309
    2    2    0   27   32    0.001408   -0.000247
    2    2    0   28   32   -0.000537    0.000172
    2    2    0   29   32    0.006018   -0.000512
    2    2    0   30   32    0.018643    0.000648
    2    2    0   31   32   -0.004483    0.000155
    2    2    0   32   32   -0.007104   -0.000000
    2    2    0   33   32   -0.008784   -0.000353
    2    2    0   34   32    0.007580    0.000277
    2    2    0    1   33   -0.005472    0.000338
    2    2    0    2   33    0.000119   -0.000190
    2    2    0    3   33    0.002866   -0.000286
    2    2    0    4   33   -0.002116    0.000312
    2    2    0    5   33    0.000021   -0.000205
    2    2    0    6   33    0.003117    0.000453
    2    2    0    7   33    0.000235    0.000288
    2    2    0    8   33    0.004101   -0.000003
    2    2    0    9   33   -0.000118   -0.000209
    2    2    0   10   33   -0.000039   -0.000196
    2    2    0   11   33   -0.002757    0.000006
    2    2    0   12   33    0.004396    0.000060
    2    2    0   13   33    0.004430    0.000308
    2    2    0   14   33    0.001711   -0.000020
    2    2    0   15   33   -0.005673   -0.000237
    2    2    0   16   33    0.000451   -0.000050
    2    2    0   17   33    0.000507    0.000689
    2    2    0   18   33    0.002556    0.000948
    2    2    0   19   33    0.001291    0.000427
    2    2    0   20   33   -0.005666    0.000450
    2    2    0   21   33   -0.002513    0.000384
    2    2    0   22   33   -0.002650    0.000431
    2    2    0   23   33    0.006606    0.000571
    2    2    0   24   33   -0.002040   -0.000541
    2    2    0   25   33    0.004073    0.000001
    2    2    0   26   33   -0.011369    0.001714
    2    2    0   27   33   -0.003354    0.000614
    2    2    0   28   33    0.003080    0.000328
    2    2    0   29   33   -0.011216    0.000380
    2    2    0   30   33   -0.036796    0.000627
    2    2    0   31   33    0.003678    0.000005
    2    2    0   32   33   -0.008784    0.000353
    2    2    0   33   33   -0.001712    0.000000
    2    2    0   34   33   -0.001826   -0.000444
    2    2    0    1   34   -0.004540   -0.000060
    2    2    0    2   34    0.004199   -0.000002
    2    2    0    3   34    0.001076   -0.000376
    2    2    0    4   34   -0.000850    0.000021
    2    2    0    5   34   -0.003524   -0.000004
    2    2    0    6   34   -0.001681    0.000211
    2    2    0    7   34   -0.000319   -0.000337
    2    2    0    8   34   -0.000252    0.000166
    2    2    0    9   34   -0.000642   -0.000216
    2    2    0   10   34    0.001206   -0.000283
    2    2    0   11   34    0.003587    0.000210
    2    2    0   12   34   -0.003422    0.000240
    2    2    0   13   34   -0.000126    0.000041
    2    2    0   14   34    0.009373   -0.000076
    2    2    0   15   34    0.012068   -0.000408
    2    2    0   16   34   -0.003643   -0.000145
    2    2    0   17   34    0.001869    0.000308
    2    2    0   18   34    0.003737    0.000517
    2    2    0   19   34    0.001667    0.000371
    2    2    0   20   34   -0.000692    0.000240
    2    2    0   21   34   -0.002031    0.000544
    2    2    0   22   34    0.001952    0.000148
    2    2    0   23   34   -0.009832    0.000685
    2    2    0   24   34   -0.005385   -0.000850
    2    2    0   25   34   -0.002811    0.000351
    2    2    0   26   34   -0.012579   -0.001283
    2    2    0   27   34   -0.004582    0.000466
    2    2    0   28   34    0.013224   -0.000165
    2    2    0   29   34   -0.007082    0.001256
    2    2    0   30   34   -0.009773    0.000510
    2    2    0   31   34    0.002074   -0.000526
    2    2    0   32   34    0.007580   -0.000277
    2    2    0   33   34   -0.001826    0.000444
    2    2    0   34   34   -0.006784   -0.000000
